1
# Step: 0 Box:       inf    0.0000    0.0000 
H        -0.664038588     0.000000000     0.000000000    -0.291194018     0.232997562     0.010815397
1
# Step: 1 Box:       inf    0.0000    0.0000 
H        -0.671386482     0.000000000     0.000000000    -0.294962019     0.232997562     0.010815397
1
# Step: 2 Box:       inf    0.0000    0.0000 
H        -0.679037614     0.000000000     0.000000000    -0.329517477     0.232997562     0.010815397
1
# Step: 3 Box:       inf    0.0000    0.0000 
H        -0.688572111     0.000000000     0.000000000    -0.403019903     0.232997562     0.010815397
1
# Step: 4 Box:       inf    0.0000    0.0000 
H        -0.699376250     0.000000000     0.000000000    -0.454694904     0.232997562     0.010815397
1
# Step: 5 Box:       inf    0.0000    0.0000 
H        -0.711748228     0.000000000     0.000000000    -0.519740582     0.232997562     0.010815397
