1
# Step: 0 Box:       inf    0.0000    0.0000 
H        -0.664038588     0.000000000     0.000000000     0.291194018    -0.232997562    -0.010815397
1
# Step: 1 Box:       inf    0.0000    0.0000 
H        -0.657507326     0.000000000     0.000000000     0.245062513    -0.232997562    -0.010815397
1
# Step: 2 Box:       inf    0.0000    0.0000 
H        -0.651309225     0.000000000     0.000000000     0.241306246    -0.232997562    -0.010815397
1
# Step: 3 Box:       inf    0.0000    0.0000 
H        -0.645976214     0.000000000     0.000000000     0.189182104    -0.232997562    -0.010815397
1
# Step: 4 Box:       inf    0.0000    0.0000 
H        -0.641320411     0.000000000     0.000000000     0.189424946    -0.232997562    -0.010815397
1
# Step: 5 Box:       inf    0.0000    0.0000 
H        -0.636573292     0.000000000     0.000000000     0.179777195    -0.232997562    -0.010815397
1
# Step: 6 Box:       inf    0.0000    0.0000 
H        -0.632525693     0.000000000     0.000000000     0.135882944    -0.232997562    -0.010815397
1
# Step: 7 Box:       inf    0.0000    0.0000 
H        -0.629127128     0.000000000     0.000000000     0.151199484    -0.232997562    -0.010815397
1
# Step: 8 Box:       inf    0.0000    0.0000 
H        -0.625694230     0.000000000     0.000000000     0.130934615    -0.232997562    -0.010815397
1
# Step: 9 Box:       inf    0.0000    0.0000 
H        -0.622637264     0.000000000     0.000000000     0.116529899    -0.232997562    -0.010815397
1
# Step: 10 Box:       inf    0.0000    0.0000 
H        -0.621231217     0.000000000     0.000000000     0.009208674    -0.232997562    -0.010815397
1
# Step: 11 Box:       inf    0.0000    0.0000 
H        -0.621927742     0.000000000     0.000000000    -0.061635207    -0.232997562    -0.010815397
1
# Step: 12 Box:       inf    0.0000    0.0000 
H        -0.623310957     0.000000000     0.000000000    -0.044543130    -0.232997562    -0.010815397
1
# Step: 13 Box:       inf    0.0000    0.0000 
H        -0.625012424     0.000000000     0.000000000    -0.080824645    -0.232997562    -0.010815397
1
# Step: 14 Box:       inf    0.0000    0.0000 
H        -0.627947622     0.000000000     0.000000000    -0.104113838    -0.232997562    -0.010815397
1
# Step: 15 Box:       inf    0.0000    0.0000 
H        -0.630881653     0.000000000     0.000000000    -0.120828877    -0.232997562    -0.010815397
1
# Step: 16 Box:       inf    0.0000    0.0000 
H        -0.634162476     0.000000000     0.000000000    -0.180792624    -0.232997562    -0.010815397
1
# Step: 17 Box:       inf    0.0000    0.0000 
H        -0.640098095     0.000000000     0.000000000    -0.294638830    -0.232997562    -0.010815397
1
# Step: 18 Box:       inf    0.0000    0.0000 
H        -0.648099675     0.000000000     0.000000000    -0.360970755    -0.232997562    -0.010815397
1
# Step: 19 Box:       inf    0.0000    0.0000 
H        -0.657729413     0.000000000     0.000000000    -0.410799513    -0.232997562    -0.010815397
1
# Step: 20 Box:       inf    0.0000    0.0000 
H        -0.668558865     0.000000000     0.000000000    -0.440589972    -0.232997562    -0.010815397
1
# Step: 21 Box:       inf    0.0000    0.0000 
H        -0.680535226     0.000000000     0.000000000    -0.498660454    -0.232997562    -0.010815397
1
# Step: 22 Box:       inf    0.0000    0.0000 
H        -0.693927073     0.000000000     0.000000000    -0.544699994    -0.232997562    -0.010815397
1
# Step: 23 Box:       inf    0.0000    0.0000 
H        -0.707292160     0.000000000     0.000000000    -0.543241014    -0.232997562    -0.010815397
