1
# Step: 0 Box:       inf    0.0000    0.0000 
H        -0.711748228     0.000000000     0.000000000    -0.519740582     0.232997562     0.010815397
1
# Step: 1 Box:       inf    0.0000    0.0000 
H        -0.724485507     0.000000000     0.000000000    -0.518672599     0.232997562     0.010815397
1
# Step: 2 Box:       inf    0.0000    0.0000 
H        -0.738146473     0.000000000     0.000000000    -0.603035016     0.232997562     0.010815397
1
# Step: 3 Box:       inf    0.0000    0.0000 
H        -0.754683895     0.000000000     0.000000000    -0.699290504     0.232997562     0.010815397
1
# Step: 4 Box:       inf    0.0000    0.0000 
H        -0.772319684     0.000000000     0.000000000    -0.720363231     0.232997562     0.010815397
1
# Step: 5 Box:       inf    0.0000    0.0000 
H        -0.790885150     0.000000000     0.000000000    -0.762181441     0.232997562     0.010815397
1
# Step: 6 Box:       inf    0.0000    0.0000 
H        -0.809341700     0.000000000     0.000000000    -0.710512891     0.232997562     0.010815397
1
# Step: 7 Box:       inf    0.0000    0.0000 
H        -0.826886736     0.000000000     0.000000000    -0.704574155     0.232997562     0.010815397
1
# Step: 8 Box:       inf    0.0000    0.0000 
H        -0.844496027     0.000000000     0.000000000    -0.706643512     0.232997562     0.010815397
1
# Step: 9 Box:       inf    0.0000    0.0000 
H        -0.862193843     0.000000000     0.000000000    -0.685404563     0.232997562     0.010815397
1
# Step: 10 Box:       inf    0.0000    0.0000 
H        -0.879628932     0.000000000     0.000000000    -0.708886869     0.232997562     0.010815397
1
# Step: 11 Box:       inf    0.0000    0.0000 
H        -0.897588913     0.000000000     0.000000000    -0.711890533     0.232997562     0.010815397
1
# Step: 12 Box:       inf    0.0000    0.0000 
H        -0.915581480     0.000000000     0.000000000    -0.700056792     0.232997562     0.010815397
1
# Step: 13 Box:       inf    0.0000    0.0000 
H        -0.932361910     0.000000000     0.000000000    -0.668531100     0.232997562     0.010815397
1
# Step: 14 Box:       inf    0.0000    0.0000 
H        -0.949002335     0.000000000     0.000000000    -0.649933197     0.232997562     0.010815397
1
# Step: 15 Box:       inf    0.0000    0.0000 
H        -0.965427584     0.000000000     0.000000000    -0.678338926     0.232997562     0.010815397
1
# Step: 16 Box:       inf    0.0000    0.0000 
H        -0.981725410     0.000000000     0.000000000    -0.637620467     0.232997562     0.010815397
1
# Step: 17 Box:       inf    0.0000    0.0000 
H        -0.997611861     0.000000000     0.000000000    -0.618664438     0.232997562     0.010815397
