1
# Step: 0 Box:       inf    0.0000    0.0000 
H        -0.501393613     0.000000000     0.000000000    -0.160105658    -0.043420507    -0.417379005
1
# Step: 1 Box:       inf    0.0000    0.0000 
H        -0.505811697     0.000000000     0.000000000    -0.184741684    -0.043420507    -0.417379005
1
# Step: 2 Box:       inf    0.0000    0.0000 
H        -0.510923374     0.000000000     0.000000000    -0.230024802    -0.043420507    -0.417379005
1
# Step: 3 Box:       inf    0.0000    0.0000 
H        -0.517436636     0.000000000     0.000000000    -0.260269064    -0.043420507    -0.417379005
1
# Step: 4 Box:       inf    0.0000    0.0000 
H        -0.525394227     0.000000000     0.000000000    -0.364488022    -0.043420507    -0.417379005
1
# Step: 5 Box:       inf    0.0000    0.0000 
H        -0.534500660     0.000000000     0.000000000    -0.376784355    -0.043420507    -0.417379005
1
# Step: 6 Box:       inf    0.0000    0.0000 
H        -0.544396822     0.000000000     0.000000000    -0.398659331    -0.043420507    -0.417379005
1
# Step: 7 Box:       inf    0.0000    0.0000 
H        -0.554616432     0.000000000     0.000000000    -0.406013283    -0.043420507    -0.417379005
1
# Step: 8 Box:       inf    0.0000    0.0000 
H        -0.565354161     0.000000000     0.000000000    -0.434675539    -0.043420507    -0.417379005
1
# Step: 9 Box:       inf    0.0000    0.0000 
H        -0.577192118     0.000000000     0.000000000    -0.506654911    -0.043420507    -0.417379005
1
# Step: 10 Box:       inf    0.0000    0.0000 
H        -0.589987968     0.000000000     0.000000000    -0.508367506    -0.043420507    -0.417379005
1
# Step: 11 Box:       inf    0.0000    0.0000 
H        -0.603364845     0.000000000     0.000000000    -0.564944049    -0.043420507    -0.417379005
1
# Step: 12 Box:       inf    0.0000    0.0000 
H        -0.617455534     0.000000000     0.000000000    -0.573255355    -0.043420507    -0.417379005
1
# Step: 13 Box:       inf    0.0000    0.0000 
H        -0.631518605     0.000000000     0.000000000    -0.588216439    -0.043420507    -0.417379005
1
# Step: 14 Box:       inf    0.0000    0.0000 
H        -0.646771010     0.000000000     0.000000000    -0.636950991    -0.043420507    -0.417379005
1
# Step: 15 Box:       inf    0.0000    0.0000 
H        -0.662787373     0.000000000     0.000000000    -0.617905837    -0.043420507    -0.417379005
1
# Step: 16 Box:       inf    0.0000    0.0000 
H        -0.678978820     0.000000000     0.000000000    -0.657001202    -0.043420507    -0.417379005
1
# Step: 17 Box:       inf    0.0000    0.0000 
H        -0.695960056     0.000000000     0.000000000    -0.701097186    -0.043420507    -0.417379005
1
# Step: 18 Box:       inf    0.0000    0.0000 
H        -0.713220450     0.000000000     0.000000000    -0.677740098    -0.043420507    -0.417379005
1
# Step: 19 Box:       inf    0.0000    0.0000 
H        -0.730728610     0.000000000     0.000000000    -0.721386599    -0.043420507    -0.417379005
1
# Step: 20 Box:       inf    0.0000    0.0000 
H        -0.748874113     0.000000000     0.000000000    -0.755379850    -0.043420507    -0.417379005
1
# Step: 21 Box:       inf    0.0000    0.0000 
H        -0.767959101     0.000000000     0.000000000    -0.784974403    -0.043420507    -0.417379005
1
# Step: 22 Box:       inf    0.0000    0.0000 
H        -0.787282466     0.000000000     0.000000000    -0.778689463    -0.043420507    -0.417379005
1
# Step: 23 Box:       inf    0.0000    0.0000 
H        -0.807166951     0.000000000     0.000000000    -0.821693877    -0.043420507    -0.417379005
1
# Step: 24 Box:       inf    0.0000    0.0000 
H        -0.828142058     0.000000000     0.000000000    -0.870943732    -0.043420507    -0.417379005
1
# Step: 25 Box:       inf    0.0000    0.0000 
H        -0.850014886     0.000000000     0.000000000    -0.870755059    -0.043420507    -0.417379005
1
# Step: 26 Box:       inf    0.0000    0.0000 
H        -0.872405222     0.000000000     0.000000000    -0.902902051    -0.043420507    -0.417379005
1
# Step: 27 Box:       inf    0.0000    0.0000 
H        -0.894825719     0.000000000     0.000000000    -0.885963939    -0.043420507    -0.417379005
1
# Step: 28 Box:       inf    0.0000    0.0000 
H        -0.917204652     0.000000000     0.000000000    -0.914949247    -0.043420507    -0.417379005
1
# Step: 29 Box:       inf    0.0000    0.0000 
H        -0.939942772     0.000000000     0.000000000    -0.896207482    -0.043420507    -0.417379005
1
# Step: 30 Box:       inf    0.0000    0.0000 
H        -0.963173591     0.000000000     0.000000000    -0.923939241    -0.043420507    -0.417379005
1
# Step: 31 Box:       inf    0.0000    0.0000 
H        -0.987094878     0.000000000     0.000000000    -0.965111098    -0.043420507    -0.417379005
1
# Step: 32 Box:       inf    0.0000    0.0000 
H        -1.010141507     0.000000000     0.000000000    -0.908781852    -0.043420507    -0.417379005
