1
# Step: 0 Box:       inf    0.0000    0.0000 
H        -0.308736743     0.000000000     0.000000000    -0.451470758    -0.420458140     0.263159195
1
# Step: 1 Box:       inf    0.0000    0.0000 
H        -0.320571036     0.000000000     0.000000000    -0.490000004    -0.420458140     0.263159195
1
# Step: 2 Box:       inf    0.0000    0.0000 
H        -0.333390168     0.000000000     0.000000000    -0.530498289    -0.420458140     0.263159195
1
# Step: 3 Box:       inf    0.0000    0.0000 
H        -0.346932779     0.000000000     0.000000000    -0.528535332    -0.420458140     0.263159195
1
# Step: 4 Box:       inf    0.0000    0.0000 
H        -0.360757646     0.000000000     0.000000000    -0.544921843    -0.420458140     0.263159195
1
# Step: 5 Box:       inf    0.0000    0.0000 
H        -0.375475203     0.000000000     0.000000000    -0.597308328    -0.420458140     0.263159195
1
# Step: 6 Box:       inf    0.0000    0.0000 
H        -0.390607451     0.000000000     0.000000000    -0.597522970    -0.420458140     0.263159195
1
# Step: 7 Box:       inf    0.0000    0.0000 
H        -0.405688542     0.000000000     0.000000000    -0.618136169    -0.420458140     0.263159195
1
# Step: 8 Box:       inf    0.0000    0.0000 
H        -0.420591210     0.000000000     0.000000000    -0.590751023    -0.420458140     0.263159195
1
# Step: 9 Box:       inf    0.0000    0.0000 
H        -0.435302162     0.000000000     0.000000000    -0.592873621    -0.420458140     0.263159195
1
# Step: 10 Box:       inf    0.0000    0.0000 
H        -0.450045670     0.000000000     0.000000000    -0.609157773    -0.420458140     0.263159195
1
# Step: 11 Box:       inf    0.0000    0.0000 
H        -0.465632665     0.000000000     0.000000000    -0.648342113    -0.420458140     0.263159195
1
# Step: 12 Box:       inf    0.0000    0.0000 
H        -0.481695497     0.000000000     0.000000000    -0.659331616    -0.420458140     0.263159195
1
# Step: 13 Box:       inf    0.0000    0.0000 
H        -0.499055355     0.000000000     0.000000000    -0.745806948    -0.420458140     0.263159195
1
# Step: 14 Box:       inf    0.0000    0.0000 
H        -0.518136147     0.000000000     0.000000000    -0.803540764    -0.420458140     0.263159195
1
# Step: 15 Box:       inf    0.0000    0.0000 
H        -0.537644964     0.000000000     0.000000000    -0.784402366    -0.420458140     0.263159195
1
# Step: 16 Box:       inf    0.0000    0.0000 
H        -0.557916503     0.000000000     0.000000000    -0.854873800    -0.420458140     0.263159195
1
# Step: 17 Box:       inf    0.0000    0.0000 
H        -0.579752034     0.000000000     0.000000000    -0.877860904    -0.420458140     0.263159195
1
# Step: 18 Box:       inf    0.0000    0.0000 
H        -0.602369206     0.000000000     0.000000000    -0.934366031    -0.420458140     0.263159195
1
# Step: 19 Box:       inf    0.0000    0.0000 
H        -0.625732163     0.000000000     0.000000000    -0.944581827    -0.420458140     0.263159195
1
# Step: 20 Box:       inf    0.0000    0.0000 
H        -0.648656654     0.000000000     0.000000000    -0.931214368    -0.420458140     0.263159195
1
# Step: 21 Box:       inf    0.0000    0.0000 
H        -0.672706736     0.000000000     0.000000000    -0.956877908    -0.420458140     0.263159195
1
# Step: 22 Box:       inf    0.0000    0.0000 
H        -0.697730402     0.000000000     0.000000000    -1.031801046    -0.420458140     0.263159195
1
# Step: 23 Box:       inf    0.0000    0.0000 
H        -0.723279105     0.000000000     0.000000000    -1.017732317    -0.420458140     0.263159195
1
# Step: 24 Box:       inf    0.0000    0.0000 
H        -0.748792036     0.000000000     0.000000000    -1.046045845    -0.420458140     0.263159195
1
# Step: 25 Box:       inf    0.0000    0.0000 
H        -0.775407722     0.000000000     0.000000000    -1.077167845    -0.420458140     0.263159195
1
# Step: 26 Box:       inf    0.0000    0.0000 
H        -0.802604290     0.000000000     0.000000000    -1.082205585    -0.420458140     0.263159195
1
# Step: 27 Box:       inf    0.0000    0.0000 
H        -0.830160104     0.000000000     0.000000000    -1.127672487    -0.420458140     0.263159195
1
# Step: 28 Box:       inf    0.0000    0.0000 
H        -0.858135949     0.000000000     0.000000000    -1.101468540    -0.420458140     0.263159195
1
# Step: 29 Box:       inf    0.0000    0.0000 
H        -0.885575147     0.000000000     0.000000000    -1.065203732    -0.420458140     0.263159195
1
# Step: 30 Box:       inf    0.0000    0.0000 
H        -0.913107579     0.000000000     0.000000000    -1.119545176    -0.420458140     0.263159195
1
# Step: 31 Box:       inf    0.0000    0.0000 
H        -0.941018083     0.000000000     0.000000000    -1.105956423    -0.420458140     0.263159195
1
# Step: 32 Box:       inf    0.0000    0.0000 
H        -0.968328125     0.000000000     0.000000000    -1.085303721    -0.420458140     0.263159195
1
# Step: 33 Box:       inf    0.0000    0.0000 
H        -0.994898436     0.000000000     0.000000000    -1.037382305    -0.420458140     0.263159195
