1
# Step: 0 Box:       inf    0.0000    0.0000 
H        -0.303295605     0.000000000     0.000000000    -0.426240198     0.420458140    -0.263159195
1
# Step: 1 Box:       inf    0.0000    0.0000 
H        -0.313762869     0.000000000     0.000000000    -0.431629490     0.420458140    -0.263159195
1
# Step: 2 Box:       inf    0.0000    0.0000 
H        -0.325600758     0.000000000     0.000000000    -0.484190210     0.420458140    -0.263159195
1
# Step: 3 Box:       inf    0.0000    0.0000 
H        -0.338898839     0.000000000     0.000000000    -0.574998904     0.420458140    -0.263159195
1
# Step: 4 Box:       inf    0.0000    0.0000 
H        -0.353069233     0.000000000     0.000000000    -0.560679974     0.420458140    -0.263159195
1
# Step: 5 Box:       inf    0.0000    0.0000 
H        -0.367368998     0.000000000     0.000000000    -0.582093140     0.420458140    -0.263159195
1
# Step: 6 Box:       inf    0.0000    0.0000 
H        -0.381896596     0.000000000     0.000000000    -0.604020721     0.420458140    -0.263159195
1
# Step: 7 Box:       inf    0.0000    0.0000 
H        -0.397117165     0.000000000     0.000000000    -0.613802001     0.420458140    -0.263159195
1
# Step: 8 Box:       inf    0.0000    0.0000 
H        -0.413222591     0.000000000     0.000000000    -0.652178038     0.420458140    -0.263159195
1
# Step: 9 Box:       inf    0.0000    0.0000 
H        -0.429888281     0.000000000     0.000000000    -0.665495216     0.420458140    -0.263159195
1
# Step: 10 Box:       inf    0.0000    0.0000 
H        -0.447113473     0.000000000     0.000000000    -0.688525615     0.420458140    -0.263159195
1
# Step: 11 Box:       inf    0.0000    0.0000 
H        -0.464000590     0.000000000     0.000000000    -0.704673028     0.420458140    -0.263159195
1
# Step: 12 Box:       inf    0.0000    0.0000 
H        -0.482863317     0.000000000     0.000000000    -0.780978244     0.420458140    -0.263159195
1
# Step: 13 Box:       inf    0.0000    0.0000 
H        -0.501867079     0.000000000     0.000000000    -0.717899664     0.420458140    -0.263159195
1
# Step: 14 Box:       inf    0.0000    0.0000 
H        -0.520575539     0.000000000     0.000000000    -0.789296181     0.420458140    -0.263159195
1
# Step: 15 Box:       inf    0.0000    0.0000 
H        -0.540345672     0.000000000     0.000000000    -0.780003868     0.420458140    -0.263159195
1
# Step: 16 Box:       inf    0.0000    0.0000 
H        -0.559863501     0.000000000     0.000000000    -0.776672651     0.420458140    -0.263159195
1
# Step: 17 Box:       inf    0.0000    0.0000 
H        -0.580185083     0.000000000     0.000000000    -0.820879050     0.420458140    -0.263159195
1
# Step: 18 Box:       inf    0.0000    0.0000 
H        -0.601324193     0.000000000     0.000000000    -0.851886760     0.420458140    -0.263159195
1
# Step: 19 Box:       inf    0.0000    0.0000 
H        -0.623300471     0.000000000     0.000000000    -0.884318559     0.420458140    -0.263159195
1
# Step: 20 Box:       inf    0.0000    0.0000 
H        -0.645882464     0.000000000     0.000000000    -0.892091772     0.420458140    -0.263159195
1
# Step: 21 Box:       inf    0.0000    0.0000 
H        -0.668780754     0.000000000     0.000000000    -0.916356187     0.420458140    -0.263159195
1
# Step: 22 Box:       inf    0.0000    0.0000 
H        -0.691734496     0.000000000     0.000000000    -0.919434854     0.420458140    -0.263159195
1
# Step: 23 Box:       inf    0.0000    0.0000 
H        -0.715716055     0.000000000     0.000000000    -0.977415108     0.420458140    -0.263159195
1
# Step: 24 Box:       inf    0.0000    0.0000 
H        -0.739734590     0.000000000     0.000000000    -0.940763601     0.420458140    -0.263159195
1
# Step: 25 Box:       inf    0.0000    0.0000 
H        -0.763380004     0.000000000     0.000000000    -0.924992136     0.420458140    -0.263159195
1
# Step: 26 Box:       inf    0.0000    0.0000 
H        -0.787028944     0.000000000     0.000000000    -0.952889809     0.420458140    -0.263159195
1
# Step: 27 Box:       inf    0.0000    0.0000 
H        -0.811220705     0.000000000     0.000000000    -0.984996935     0.420458140    -0.263159195
1
# Step: 28 Box:       inf    0.0000    0.0000 
H        -0.835279373     0.000000000     0.000000000    -0.955715728     0.420458140    -0.263159195
1
# Step: 29 Box:       inf    0.0000    0.0000 
H        -0.859439045     0.000000000     0.000000000    -0.962721558     0.420458140    -0.263159195
1
# Step: 30 Box:       inf    0.0000    0.0000 
H        -0.884146265     0.000000000     0.000000000    -0.985444068     0.420458140    -0.263159195
1
# Step: 31 Box:       inf    0.0000    0.0000 
H        -0.908221463     0.000000000     0.000000000    -0.941756834     0.420458140    -0.263159195
1
# Step: 32 Box:       inf    0.0000    0.0000 
H        -0.931901152     0.000000000     0.000000000    -0.953901945     0.420458140    -0.263159195
1
# Step: 33 Box:       inf    0.0000    0.0000 
H        -0.956061880     0.000000000     0.000000000    -0.984758091     0.420458140    -0.263159195
1
# Step: 34 Box:       inf    0.0000    0.0000 
H        -0.980506788     0.000000000     0.000000000    -0.992155149     0.420458140    -0.263159195
1
# Step: 35 Box:       inf    0.0000    0.0000 
H        -1.005091305     0.000000000     0.000000000    -0.992752288     0.420458140    -0.263159195
