1
# Step: 0 Box:       inf    0.0000    0.0000 
H        -0.142063843     0.000000000     0.000000000     0.064038034    -0.420458140     0.263159195
1
# Step: 1 Box:       inf    0.0000    0.0000 
H        -0.140537921     0.000000000     0.000000000     0.046711389    -0.420458140     0.263159195
1
# Step: 2 Box:       inf    0.0000    0.0000 
H        -0.139234107     0.000000000     0.000000000     0.042785463    -0.420458140     0.263159195
1
# Step: 3 Box:       inf    0.0000    0.0000 
H        -0.137783544     0.000000000     0.000000000     0.034239322    -0.420458140     0.263159195
1
# Step: 4 Box:       inf    0.0000    0.0000 
H        -0.137319007     0.000000000     0.000000000    -0.007358173    -0.420458140     0.263159195
1
# Step: 5 Box:       inf    0.0000    0.0000 
H        -0.137506587     0.000000000     0.000000000    -0.031070666    -0.420458140     0.263159195
1
# Step: 6 Box:       inf    0.0000    0.0000 
H        -0.138271574     0.000000000     0.000000000    -0.043353529    -0.420458140     0.263159195
1
# Step: 7 Box:       inf    0.0000    0.0000 
H        -0.139729149     0.000000000     0.000000000    -0.048995049    -0.420458140     0.263159195
1
# Step: 8 Box:       inf    0.0000    0.0000 
H        -0.141011211     0.000000000     0.000000000    -0.023485242    -0.420458140     0.263159195
1
# Step: 9 Box:       inf    0.0000    0.0000 
H        -0.141812703     0.000000000     0.000000000    -0.036432741    -0.420458140     0.263159195
1
# Step: 10 Box:       inf    0.0000    0.0000 
H        -0.142899375     0.000000000     0.000000000    -0.031952011    -0.420458140     0.263159195
1
# Step: 11 Box:       inf    0.0000    0.0000 
H        -0.143568446     0.000000000     0.000000000    -0.058207587    -0.420458140     0.263159195
1
# Step: 12 Box:       inf    0.0000    0.0000 
H        -0.145897179     0.000000000     0.000000000    -0.100529021    -0.420458140     0.263159195
1
# Step: 13 Box:       inf    0.0000    0.0000 
H        -0.148043751     0.000000000     0.000000000    -0.078271615    -0.420458140     0.263159195
1
# Step: 14 Box:       inf    0.0000    0.0000 
H        -0.150157508     0.000000000     0.000000000    -0.096954914    -0.420458140     0.263159195
1
# Step: 15 Box:       inf    0.0000    0.0000 
H        -0.152759938     0.000000000     0.000000000    -0.133136884    -0.420458140     0.263159195
1
# Step: 16 Box:       inf    0.0000    0.0000 
H        -0.155742225     0.000000000     0.000000000    -0.135905911    -0.420458140     0.263159195
1
# Step: 17 Box:       inf    0.0000    0.0000 
H        -0.158868353     0.000000000     0.000000000    -0.126966811    -0.420458140     0.263159195
1
# Step: 18 Box:       inf    0.0000    0.0000 
H        -0.162263897     0.000000000     0.000000000    -0.131413678    -0.420458140     0.263159195
1
# Step: 19 Box:       inf    0.0000    0.0000 
H        -0.165533592     0.000000000     0.000000000    -0.151474352    -0.420458140     0.263159195
1
# Step: 20 Box:       inf    0.0000    0.0000 
H        -0.169731077     0.000000000     0.000000000    -0.165624482    -0.420458140     0.263159195
1
# Step: 21 Box:       inf    0.0000    0.0000 
H        -0.173581771     0.000000000     0.000000000    -0.144933434    -0.420458140     0.263159195
1
# Step: 22 Box:       inf    0.0000    0.0000 
H        -0.177576901     0.000000000     0.000000000    -0.179566640    -0.420458140     0.263159195
1
# Step: 23 Box:       inf    0.0000    0.0000 
H        -0.182588346     0.000000000     0.000000000    -0.212454615    -0.420458140     0.263159195
1
# Step: 24 Box:       inf    0.0000    0.0000 
H        -0.187546075     0.000000000     0.000000000    -0.202779903    -0.420458140     0.263159195
1
# Step: 25 Box:       inf    0.0000    0.0000 
H        -0.192784283     0.000000000     0.000000000    -0.207581698    -0.420458140     0.263159195
1
# Step: 26 Box:       inf    0.0000    0.0000 
H        -0.197951027     0.000000000     0.000000000    -0.199736622    -0.420458140     0.263159195
1
# Step: 27 Box:       inf    0.0000    0.0000 
H        -0.202608019     0.000000000     0.000000000    -0.202057194    -0.420458140     0.263159195
1
# Step: 28 Box:       inf    0.0000    0.0000 
H        -0.207742432     0.000000000     0.000000000    -0.226948451    -0.420458140     0.263159195
1
# Step: 29 Box:       inf    0.0000    0.0000 
H        -0.212816346     0.000000000     0.000000000    -0.193123722    -0.420458140     0.263159195
1
# Step: 30 Box:       inf    0.0000    0.0000 
H        -0.218126139     0.000000000     0.000000000    -0.257611336    -0.420458140     0.263159195
1
# Step: 31 Box:       inf    0.0000    0.0000 
H        -0.224817285     0.000000000     0.000000000    -0.283088825    -0.420458140     0.263159195
1
# Step: 32 Box:       inf    0.0000    0.0000 
H        -0.232593318     0.000000000     0.000000000    -0.321268854    -0.420458140     0.263159195
1
# Step: 33 Box:       inf    0.0000    0.0000 
H        -0.239920558     0.000000000     0.000000000    -0.277653351    -0.420458140     0.263159195
1
# Step: 34 Box:       inf    0.0000    0.0000 
H        -0.247403036     0.000000000     0.000000000    -0.298509475    -0.420458140     0.263159195
1
# Step: 35 Box:       inf    0.0000    0.0000 
H        -0.255331081     0.000000000     0.000000000    -0.333025709    -0.420458140     0.263159195
1
# Step: 36 Box:       inf    0.0000    0.0000 
H        -0.263226628     0.000000000     0.000000000    -0.315071908    -0.420458140     0.263159195
1
# Step: 37 Box:       inf    0.0000    0.0000 
H        -0.271168664     0.000000000     0.000000000    -0.315802007    -0.420458140     0.263159195
1
# Step: 38 Box:       inf    0.0000    0.0000 
H        -0.278888201     0.000000000     0.000000000    -0.347312420    -0.420458140     0.263159195
1
# Step: 39 Box:       inf    0.0000    0.0000 
H        -0.287997819     0.000000000     0.000000000    -0.374989703    -0.420458140     0.263159195
1
# Step: 40 Box:       inf    0.0000    0.0000 
H        -0.298013593     0.000000000     0.000000000    -0.425190811    -0.420458140     0.263159195
1
# Step: 41 Box:       inf    0.0000    0.0000 
H        -0.308736743     0.000000000     0.000000000    -0.451470758    -0.420458140     0.263159195
