1
# Step: 0 Box:       inf    0.0000    0.0000 
H        -0.142063843     0.000000000     0.000000000    -0.064038034     0.420458140    -0.263159195
1
# Step: 1 Box:       inf    0.0000    0.0000 
H        -0.144569896     0.000000000     0.000000000    -0.130878556     0.420458140    -0.263159195
1
# Step: 2 Box:       inf    0.0000    0.0000 
H        -0.147199114     0.000000000     0.000000000    -0.099884114     0.420458140    -0.263159195
1
# Step: 3 Box:       inf    0.0000    0.0000 
H        -0.149623612     0.000000000     0.000000000    -0.095813303     0.420458140    -0.263159195
1
# Step: 4 Box:       inf    0.0000    0.0000 
H        -0.152041206     0.000000000     0.000000000    -0.122981183     0.420458140    -0.263159195
1
# Step: 5 Box:       inf    0.0000    0.0000 
H        -0.154980079     0.000000000     0.000000000    -0.127349595     0.420458140    -0.263159195
1
# Step: 6 Box:       inf    0.0000    0.0000 
H        -0.158852575     0.000000000     0.000000000    -0.174129687     0.420458140    -0.263159195
1
# Step: 7 Box:       inf    0.0000    0.0000 
H        -0.163771904     0.000000000     0.000000000    -0.167932248     0.420458140    -0.263159195
1
# Step: 8 Box:       inf    0.0000    0.0000 
H        -0.167736703     0.000000000     0.000000000    -0.172680143     0.420458140    -0.263159195
1
# Step: 9 Box:       inf    0.0000    0.0000 
H        -0.173038530     0.000000000     0.000000000    -0.233067653     0.420458140    -0.263159195
1
# Step: 10 Box:       inf    0.0000    0.0000 
H        -0.179422736     0.000000000     0.000000000    -0.256863032     0.420458140    -0.263159195
1
# Step: 11 Box:       inf    0.0000    0.0000 
H        -0.186183855     0.000000000     0.000000000    -0.266549447     0.420458140    -0.263159195
1
# Step: 12 Box:       inf    0.0000    0.0000 
H        -0.193770751     0.000000000     0.000000000    -0.335526145     0.420458140    -0.263159195
1
# Step: 13 Box:       inf    0.0000    0.0000 
H        -0.202442731     0.000000000     0.000000000    -0.335456725     0.420458140    -0.263159195
1
# Step: 14 Box:       inf    0.0000    0.0000 
H        -0.211076724     0.000000000     0.000000000    -0.350985185     0.420458140    -0.263159195
1
# Step: 15 Box:       inf    0.0000    0.0000 
H        -0.220160010     0.000000000     0.000000000    -0.361717093     0.420458140    -0.263159195
1
# Step: 16 Box:       inf    0.0000    0.0000 
H        -0.229119446     0.000000000     0.000000000    -0.354367432     0.420458140    -0.263159195
1
# Step: 17 Box:       inf    0.0000    0.0000 
H        -0.238183986     0.000000000     0.000000000    -0.384987625     0.420458140    -0.263159195
1
# Step: 18 Box:       inf    0.0000    0.0000 
H        -0.248238549     0.000000000     0.000000000    -0.398198597     0.420458140    -0.263159195
1
# Step: 19 Box:       inf    0.0000    0.0000 
H        -0.258691942     0.000000000     0.000000000    -0.419954548     0.420458140    -0.263159195
1
# Step: 20 Box:       inf    0.0000    0.0000 
H        -0.270006425     0.000000000     0.000000000    -0.479664658     0.420458140    -0.263159195
1
# Step: 21 Box:       inf    0.0000    0.0000 
H        -0.281376872     0.000000000     0.000000000    -0.438200300     0.420458140    -0.263159195
1
# Step: 22 Box:       inf    0.0000    0.0000 
H        -0.292539407     0.000000000     0.000000000    -0.425798014     0.420458140    -0.263159195
1
# Step: 23 Box:       inf    0.0000    0.0000 
H        -0.303295605     0.000000000     0.000000000    -0.426240198     0.420458140    -0.263159195
