1
# Step: 0 Box:       inf    0.0000    0.0000 
H        -1.116118101     0.000000000     0.000000000    -0.362127875    -0.492103747     0.291591274
1
# Step: 1 Box:       inf    0.0000    0.0000 
H        -1.124420156     0.000000000     0.000000000    -0.310313212    -0.492103747     0.291591274
1
# Step: 2 Box:       inf    0.0000    0.0000 
H        -1.131525800     0.000000000     0.000000000    -0.291560260    -0.492103747     0.291591274
1
# Step: 3 Box:       inf    0.0000    0.0000 
H        -1.137385686     0.000000000     0.000000000    -0.200923104    -0.492103747     0.291591274
1
# Step: 4 Box:       inf    0.0000    0.0000 
H        -1.142330287     0.000000000     0.000000000    -0.193685091    -0.492103747     0.291591274
1
# Step: 5 Box:       inf    0.0000    0.0000 
H        -1.146250567     0.000000000     0.000000000    -0.129295096    -0.492103747     0.291591274
1
# Step: 6 Box:       inf    0.0000    0.0000 
H        -1.148507918     0.000000000     0.000000000    -0.065438749    -0.492103747     0.291591274
1
# Step: 7 Box:       inf    0.0000    0.0000 
H        -1.149392435     0.000000000     0.000000000    -0.011016886    -0.492103747     0.291591274
1
# Step: 8 Box:       inf    0.0000    0.0000 
H        -1.149262933     0.000000000     0.000000000     0.013959215    -0.492103747     0.291591274
1
# Step: 9 Box:       inf    0.0000    0.0000 
H        -1.148238315     0.000000000     0.000000000     0.065048654    -0.492103747     0.291591274
1
# Step: 10 Box:       inf    0.0000    0.0000 
H        -1.146316277     0.000000000     0.000000000     0.085582087    -0.492103747     0.291591274
1
# Step: 11 Box:       inf    0.0000    0.0000 
H        -1.143487167     0.000000000     0.000000000     0.146546452    -0.492103747     0.291591274
1
# Step: 12 Box:       inf    0.0000    0.0000 
H        -1.140299222     0.000000000     0.000000000     0.122194627    -0.492103747     0.291591274
1
# Step: 13 Box:       inf    0.0000    0.0000 
H        -1.136259274     0.000000000     0.000000000     0.185809716    -0.492103747     0.291591274
1
# Step: 14 Box:       inf    0.0000    0.0000 
H        -1.131257992     0.000000000     0.000000000     0.221277714    -0.492103747     0.291591274
1
# Step: 15 Box:       inf    0.0000    0.0000 
H        -1.126046277     0.000000000     0.000000000     0.202350382    -0.492103747     0.291591274
1
# Step: 16 Box:       inf    0.0000    0.0000 
H        -1.121258476     0.000000000     0.000000000     0.181140037    -0.492103747     0.291591274
1
# Step: 17 Box:       inf    0.0000    0.0000 
H        -1.115832881     0.000000000     0.000000000     0.229403672    -0.492103747     0.291591274
1
# Step: 18 Box:       inf    0.0000    0.0000 
H        -1.109468375     0.000000000     0.000000000     0.254663746    -0.492103747     0.291591274
1
# Step: 19 Box:       inf    0.0000    0.0000 
H        -1.102722860     0.000000000     0.000000000     0.266742056    -0.492103747     0.291591274
1
# Step: 20 Box:       inf    0.0000    0.0000 
H        -1.096044229     0.000000000     0.000000000     0.280308978    -0.492103747     0.291591274
1
# Step: 21 Box:       inf    0.0000    0.0000 
H        -1.088535405     0.000000000     0.000000000     0.297596751    -0.492103747     0.291591274
1
# Step: 22 Box:       inf    0.0000    0.0000 
H        -1.081312253     0.000000000     0.000000000     0.289984562    -0.492103747     0.291591274
1
# Step: 23 Box:       inf    0.0000    0.0000 
H        -1.074887294     0.000000000     0.000000000     0.240634493    -0.492103747     0.291591274
1
# Step: 24 Box:       inf    0.0000    0.0000 
H        -1.068371999     0.000000000     0.000000000     0.282014320    -0.492103747     0.291591274
1
# Step: 25 Box:       inf    0.0000    0.0000 
H        -1.060890113     0.000000000     0.000000000     0.292820406    -0.492103747     0.291591274
1
# Step: 26 Box:       inf    0.0000    0.0000 
H        -1.052473264     0.000000000     0.000000000     0.374366981    -0.492103747     0.291591274
1
# Step: 27 Box:       inf    0.0000    0.0000 
H        -1.043813988     0.000000000     0.000000000     0.348741973    -0.492103747     0.291591274
1
# Step: 28 Box:       inf    0.0000    0.0000 
H        -1.034200232     0.000000000     0.000000000     0.382847998    -0.492103747     0.291591274
1
# Step: 29 Box:       inf    0.0000    0.0000 
H        -1.024973564     0.000000000     0.000000000     0.356020951    -0.492103747     0.291591274
1
# Step: 30 Box:       inf    0.0000    0.0000 
H        -1.016072867     0.000000000     0.000000000     0.353390998    -0.492103747     0.291591274
1
# Step: 31 Box:       inf    0.0000    0.0000 
H        -1.007476837     0.000000000     0.000000000     0.342639734    -0.492103747     0.291591274
1
# Step: 32 Box:       inf    0.0000    0.0000 
H        -0.998859325     0.000000000     0.000000000     0.343279712    -0.492103747     0.291591274
1
# Step: 33 Box:       inf    0.0000    0.0000 
H        -0.990808224     0.000000000     0.000000000     0.307463379    -0.492103747     0.291591274
1
# Step: 34 Box:       inf    0.0000    0.0000 
H        -0.982995779     0.000000000     0.000000000     0.305260540    -0.492103747     0.291591274
