1
# Step: 0 Box:       inf    0.0000    0.0000 
H        -0.704959614     0.000000000     0.000000000    -0.245963800    -0.032252197    -0.422600331
1
# Step: 1 Box:       inf    0.0000    0.0000 
H        -0.711679644     0.000000000     0.000000000    -0.285485873    -0.032252197    -0.422600331
1
# Step: 2 Box:       inf    0.0000    0.0000 
H        -0.719723045     0.000000000     0.000000000    -0.372670310    -0.032252197    -0.422600331
1
# Step: 3 Box:       inf    0.0000    0.0000 
H        -0.729420819     0.000000000     0.000000000    -0.372811314    -0.032252197    -0.422600331
1
# Step: 4 Box:       inf    0.0000    0.0000 
H        -0.738143548     0.000000000     0.000000000    -0.347810445    -0.032252197    -0.422600331
1
# Step: 5 Box:       inf    0.0000    0.0000 
H        -0.746841423     0.000000000     0.000000000    -0.364582546    -0.032252197    -0.422600331
1
# Step: 6 Box:       inf    0.0000    0.0000 
H        -0.756474742     0.000000000     0.000000000    -0.415690913    -0.032252197    -0.422600331
1
# Step: 7 Box:       inf    0.0000    0.0000 
H        -0.767361986     0.000000000     0.000000000    -0.454436965    -0.032252197    -0.422600331
1
# Step: 8 Box:       inf    0.0000    0.0000 
H        -0.779376485     0.000000000     0.000000000    -0.488938054    -0.032252197    -0.422600331
1
# Step: 9 Box:       inf    0.0000    0.0000 
H        -0.792054347     0.000000000     0.000000000    -0.557354752    -0.032252197    -0.422600331
1
# Step: 10 Box:       inf    0.0000    0.0000 
H        -0.805278975     0.000000000     0.000000000    -0.519610995    -0.032252197    -0.422600331
1
# Step: 11 Box:       inf    0.0000    0.0000 
H        -0.818316533     0.000000000     0.000000000    -0.514484052    -0.032252197    -0.422600331
1
# Step: 12 Box:       inf    0.0000    0.0000 
H        -0.830539214     0.000000000     0.000000000    -0.492490816    -0.032252197    -0.422600331
1
# Step: 13 Box:       inf    0.0000    0.0000 
H        -0.843841237     0.000000000     0.000000000    -0.570303160    -0.032252197    -0.422600331
1
# Step: 14 Box:       inf    0.0000    0.0000 
H        -0.858727740     0.000000000     0.000000000    -0.603749916    -0.032252197    -0.422600331
1
# Step: 15 Box:       inf    0.0000    0.0000 
H        -0.873554838     0.000000000     0.000000000    -0.574920940    -0.032252197    -0.422600331
1
# Step: 16 Box:       inf    0.0000    0.0000 
H        -0.887739934     0.000000000     0.000000000    -0.575600116    -0.032252197    -0.422600331
1
# Step: 17 Box:       inf    0.0000    0.0000 
H        -0.901917835     0.000000000     0.000000000    -0.561367239    -0.032252197    -0.422600331
1
# Step: 18 Box:       inf    0.0000    0.0000 
H        -0.915026160     0.000000000     0.000000000    -0.510529769    -0.032252197    -0.422600331
1
# Step: 19 Box:       inf    0.0000    0.0000 
H        -0.928009712     0.000000000     0.000000000    -0.540388236    -0.032252197    -0.422600331
1
# Step: 20 Box:       inf    0.0000    0.0000 
H        -0.941010792     0.000000000     0.000000000    -0.485979742    -0.032252197    -0.422600331
1
# Step: 21 Box:       inf    0.0000    0.0000 
H        -0.952863302     0.000000000     0.000000000    -0.469329395    -0.032252197    -0.422600331
1
# Step: 22 Box:       inf    0.0000    0.0000 
H        -0.964417220     0.000000000     0.000000000    -0.441239644    -0.032252197    -0.422600331
1
# Step: 23 Box:       inf    0.0000    0.0000 
H        -0.975878393     0.000000000     0.000000000    -0.469410686    -0.032252197    -0.422600331
1
# Step: 24 Box:       inf    0.0000    0.0000 
H        -0.987557148     0.000000000     0.000000000    -0.490491716    -0.032252197    -0.422600331
1
# Step: 25 Box:       inf    0.0000    0.0000 
H        -0.999751663     0.000000000     0.000000000    -0.491411336    -0.032252197    -0.422600331
