1
# Step: 0 Box:       inf    0.0000    0.0000 
H        -0.707418095     0.000000000     0.000000000    -0.355734179     0.032252197     0.422600331
1
# Step: 1 Box:       inf    0.0000    0.0000 
H        -0.717331275     0.000000000     0.000000000    -0.437312020     0.032252197     0.422600331
1
# Step: 2 Box:       inf    0.0000    0.0000 
H        -0.728679454     0.000000000     0.000000000    -0.476723786     0.032252197     0.422600331
1
# Step: 3 Box:       inf    0.0000    0.0000 
H        -0.740644063     0.000000000     0.000000000    -0.459134631     0.032252197     0.422600331
1
# Step: 4 Box:       inf    0.0000    0.0000 
H        -0.752717249     0.000000000     0.000000000    -0.500223402     0.032252197     0.422600331
1
# Step: 5 Box:       inf    0.0000    0.0000 
H        -0.765350186     0.000000000     0.000000000    -0.488949371     0.032252197     0.422600331
1
# Step: 6 Box:       inf    0.0000    0.0000 
H        -0.777322706     0.000000000     0.000000000    -0.487591626     0.032252197     0.422600331
1
# Step: 7 Box:       inf    0.0000    0.0000 
H        -0.789604434     0.000000000     0.000000000    -0.504111875     0.032252197     0.422600331
1
# Step: 8 Box:       inf    0.0000    0.0000 
H        -0.802654975     0.000000000     0.000000000    -0.525351544     0.032252197     0.422600331
1
# Step: 9 Box:       inf    0.0000    0.0000 
H        -0.816399679     0.000000000     0.000000000    -0.584178374     0.032252197     0.422600331
1
# Step: 10 Box:       inf    0.0000    0.0000 
H        -0.831187121     0.000000000     0.000000000    -0.603602385     0.032252197     0.422600331
1
# Step: 11 Box:       inf    0.0000    0.0000 
H        -0.846572820     0.000000000     0.000000000    -0.611837600     0.032252197     0.422600331
1
# Step: 12 Box:       inf    0.0000    0.0000 
H        -0.862961682     0.000000000     0.000000000    -0.663407987     0.032252197     0.422600331
1
# Step: 13 Box:       inf    0.0000    0.0000 
H        -0.879771884     0.000000000     0.000000000    -0.677352298     0.032252197     0.422600331
1
# Step: 14 Box:       inf    0.0000    0.0000 
H        -0.896768056     0.000000000     0.000000000    -0.664871068     0.032252197     0.422600331
1
# Step: 15 Box:       inf    0.0000    0.0000 
H        -0.912935212     0.000000000     0.000000000    -0.620826864     0.032252197     0.422600331
1
# Step: 16 Box:       inf    0.0000    0.0000 
H        -0.929379415     0.000000000     0.000000000    -0.692559852     0.032252197     0.422600331
1
# Step: 17 Box:       inf    0.0000    0.0000 
H        -0.946604852     0.000000000     0.000000000    -0.673684626     0.032252197     0.422600331
1
# Step: 18 Box:       inf    0.0000    0.0000 
H        -0.963760047     0.000000000     0.000000000    -0.667549078     0.032252197     0.422600331
1
# Step: 19 Box:       inf    0.0000    0.0000 
H        -0.980096301     0.000000000     0.000000000    -0.668012437     0.032252197     0.422600331
1
# Step: 20 Box:       inf    0.0000    0.0000 
H        -0.996417189     0.000000000     0.000000000    -0.631854675     0.032252197     0.422600331
