1
# Step: 0 Box:       inf    0.0000    0.0000 
H        -0.689176329     0.000000000     0.000000000    -0.178020564    -0.032252197    -0.422600331
1
# Step: 1 Box:       inf    0.0000    0.0000 
H        -0.694331450     0.000000000     0.000000000    -0.203097299    -0.032252197    -0.422600331
1
# Step: 2 Box:       inf    0.0000    0.0000 
H        -0.699366017     0.000000000     0.000000000    -0.210489408    -0.032252197    -0.422600331
1
# Step: 3 Box:       inf    0.0000    0.0000 
H        -0.704959614     0.000000000     0.000000000    -0.245963800    -0.032252197    -0.422600331
