1
# Step: 0 Box:       inf    0.0000    0.0000 
H         0.014805748     0.000000000     0.000000000    -0.112193115     0.437872081    -0.115125156
1
# Step: 1 Box:       inf    0.0000    0.0000 
H         0.011193601     0.000000000     0.000000000    -0.162133218     0.437872081    -0.115125156
1
# Step: 2 Box:       inf    0.0000    0.0000 
H         0.007636860     0.000000000     0.000000000    -0.145667990     0.437872081    -0.115125156
1
# Step: 3 Box:       inf    0.0000    0.0000 
H         0.004107819     0.000000000     0.000000000    -0.118910847     0.437872081    -0.115125156
1
# Step: 4 Box:       inf    0.0000    0.0000 
H         0.001791912     0.000000000     0.000000000    -0.058214119     0.437872081    -0.115125156
1
# Step: 5 Box:       inf    0.0000    0.0000 
H         0.000602552     0.000000000     0.000000000    -0.049211222     0.437872081    -0.115125156
1
# Step: 6 Box:       inf    0.0000    0.0000 
H        -0.000564244     0.000000000     0.000000000    -0.072700894     0.437872081    -0.115125156
1
# Step: 7 Box:       inf    0.0000    0.0000 
H        -0.001570506     0.000000000     0.000000000    -0.030819091     0.437872081    -0.115125156
1
# Step: 8 Box:       inf    0.0000    0.0000 
H        -0.001429613     0.000000000     0.000000000     0.013724133     0.437872081    -0.115125156
1
# Step: 9 Box:       inf    0.0000    0.0000 
H        -0.000650221     0.000000000     0.000000000     0.035969637     0.437872081    -0.115125156
1
# Step: 10 Box:       inf    0.0000    0.0000 
H        -0.000335589     0.000000000     0.000000000    -0.012483717     0.437872081    -0.115125156
1
# Step: 11 Box:       inf    0.0000    0.0000 
H        -0.000812327     0.000000000     0.000000000    -0.029841230     0.437872081    -0.115125156
1
# Step: 12 Box:       inf    0.0000    0.0000 
H        -0.001308205     0.000000000     0.000000000    -0.046006318     0.437872081    -0.115125156
1
# Step: 13 Box:       inf    0.0000    0.0000 
H        -0.002582757     0.000000000     0.000000000    -0.089517362     0.437872081    -0.115125156
1
# Step: 14 Box:       inf    0.0000    0.0000 
H        -0.004883519     0.000000000     0.000000000    -0.115900278     0.437872081    -0.115125156
1
# Step: 15 Box:       inf    0.0000    0.0000 
H        -0.007939452     0.000000000     0.000000000    -0.132465009     0.437872081    -0.115125156
1
# Step: 16 Box:       inf    0.0000    0.0000 
H        -0.011116768     0.000000000     0.000000000    -0.153140386     0.437872081    -0.115125156
1
# Step: 17 Box:       inf    0.0000    0.0000 
H        -0.014976170     0.000000000     0.000000000    -0.160496767     0.437872081    -0.115125156
1
# Step: 18 Box:       inf    0.0000    0.0000 
H        -0.019249066     0.000000000     0.000000000    -0.174950859     0.437872081    -0.115125156
1
# Step: 19 Box:       inf    0.0000    0.0000 
H        -0.023866841     0.000000000     0.000000000    -0.190947705     0.437872081    -0.115125156
1
# Step: 20 Box:       inf    0.0000    0.0000 
H        -0.028953421     0.000000000     0.000000000    -0.214901308     0.437872081    -0.115125156
1
# Step: 21 Box:       inf    0.0000    0.0000 
H        -0.034982857     0.000000000     0.000000000    -0.269637500     0.437872081    -0.115125156
1
# Step: 22 Box:       inf    0.0000    0.0000 
H        -0.041924352     0.000000000     0.000000000    -0.255945515     0.437872081    -0.115125156
1
# Step: 23 Box:       inf    0.0000    0.0000 
H        -0.048998015     0.000000000     0.000000000    -0.302177915     0.437872081    -0.115125156
1
# Step: 24 Box:       inf    0.0000    0.0000 
H        -0.058090085     0.000000000     0.000000000    -0.381780534     0.437872081    -0.115125156
1
# Step: 25 Box:       inf    0.0000    0.0000 
H        -0.067644313     0.000000000     0.000000000    -0.399576058     0.437872081    -0.115125156
1
# Step: 26 Box:       inf    0.0000    0.0000 
H        -0.078361250     0.000000000     0.000000000    -0.468611023     0.437872081    -0.115125156
1
# Step: 27 Box:       inf    0.0000    0.0000 
H        -0.089680677     0.000000000     0.000000000    -0.454985735     0.437872081    -0.115125156
1
# Step: 28 Box:       inf    0.0000    0.0000 
H        -0.101129555     0.000000000     0.000000000    -0.434314802     0.437872081    -0.115125156
1
# Step: 29 Box:       inf    0.0000    0.0000 
H        -0.112156282     0.000000000     0.000000000    -0.441836368     0.437872081    -0.115125156
1
# Step: 30 Box:       inf    0.0000    0.0000 
H        -0.123039282     0.000000000     0.000000000    -0.425070901     0.437872081    -0.115125156
1
# Step: 31 Box:       inf    0.0000    0.0000 
H        -0.133996683     0.000000000     0.000000000    -0.472959599     0.437872081    -0.115125156
1
# Step: 32 Box:       inf    0.0000    0.0000 
H        -0.145976753     0.000000000     0.000000000    -0.477303501     0.437872081    -0.115125156
1
# Step: 33 Box:       inf    0.0000    0.0000 
H        -0.157473425     0.000000000     0.000000000    -0.447644482     0.437872081    -0.115125156
1
# Step: 34 Box:       inf    0.0000    0.0000 
H        -0.168867034     0.000000000     0.000000000    -0.458976943     0.437872081    -0.115125156
1
# Step: 35 Box:       inf    0.0000    0.0000 
H        -0.180564539     0.000000000     0.000000000    -0.460470076     0.437872081    -0.115125156
1
# Step: 36 Box:       inf    0.0000    0.0000 
H        -0.192093426     0.000000000     0.000000000    -0.472518306     0.437872081    -0.115125156
1
# Step: 37 Box:       inf    0.0000    0.0000 
H        -0.204332972     0.000000000     0.000000000    -0.513555431     0.437872081    -0.115125156
1
# Step: 38 Box:       inf    0.0000    0.0000 
H        -0.218450851     0.000000000     0.000000000    -0.606220704     0.437872081    -0.115125156
1
# Step: 39 Box:       inf    0.0000    0.0000 
H        -0.233355195     0.000000000     0.000000000    -0.574335213     0.437872081    -0.115125156
1
# Step: 40 Box:       inf    0.0000    0.0000 
H        -0.247258814     0.000000000     0.000000000    -0.557136216     0.437872081    -0.115125156
1
# Step: 41 Box:       inf    0.0000    0.0000 
H        -0.261792132     0.000000000     0.000000000    -0.595028367     0.437872081    -0.115125156
1
# Step: 42 Box:       inf    0.0000    0.0000 
H        -0.277021159     0.000000000     0.000000000    -0.625794236     0.437872081    -0.115125156
1
# Step: 43 Box:       inf    0.0000    0.0000 
H        -0.293421332     0.000000000     0.000000000    -0.677400992     0.437872081    -0.115125156
1
# Step: 44 Box:       inf    0.0000    0.0000 
H        -0.310911767     0.000000000     0.000000000    -0.708035674     0.437872081    -0.115125156
1
# Step: 45 Box:       inf    0.0000    0.0000 
H        -0.329024330     0.000000000     0.000000000    -0.728782424     0.437872081    -0.115125156
1
# Step: 46 Box:       inf    0.0000    0.0000 
H        -0.347574650     0.000000000     0.000000000    -0.762645384     0.437872081    -0.115125156
1
# Step: 47 Box:       inf    0.0000    0.0000 
H        -0.366359628     0.000000000     0.000000000    -0.762692081     0.437872081    -0.115125156
1
# Step: 48 Box:       inf    0.0000    0.0000 
H        -0.385222930     0.000000000     0.000000000    -0.767923079     0.437872081    -0.115125156
1
# Step: 49 Box:       inf    0.0000    0.0000 
H        -0.404956287     0.000000000     0.000000000    -0.810514134     0.437872081    -0.115125156
