1
# Step: 0 Box:       inf    0.0000    0.0000 
H        -0.404956287     0.000000000     0.000000000    -0.810514134     0.437872081    -0.115125156
1
# Step: 1 Box:       inf    0.0000    0.0000 
H        -0.425437216     0.000000000     0.000000000    -0.817335736     0.437872081    -0.115125156
1
# Step: 2 Box:       inf    0.0000    0.0000 
H        -0.446487920     0.000000000     0.000000000    -0.857235324     0.437872081    -0.115125156
1
# Step: 3 Box:       inf    0.0000    0.0000 
H        -0.467764673     0.000000000     0.000000000    -0.856360814     0.437872081    -0.115125156
1
# Step: 4 Box:       inf    0.0000    0.0000 
H        -0.489328539     0.000000000     0.000000000    -0.861939079     0.437872081    -0.115125156
1
# Step: 5 Box:       inf    0.0000    0.0000 
H        -0.511367542     0.000000000     0.000000000    -0.941553583     0.437872081    -0.115125156
1
# Step: 6 Box:       inf    0.0000    0.0000 
H        -0.535533004     0.000000000     0.000000000    -1.005028300     0.437872081    -0.115125156
1
# Step: 7 Box:       inf    0.0000    0.0000 
H        -0.561531875     0.000000000     0.000000000    -1.076797104     0.437872081    -0.115125156
1
# Step: 8 Box:       inf    0.0000    0.0000 
H        -0.588579872     0.000000000     0.000000000    -1.088683461     0.437872081    -0.115125156
1
# Step: 9 Box:       inf    0.0000    0.0000 
H        -0.615553938     0.000000000     0.000000000    -1.092859775     0.437872081    -0.115125156
1
# Step: 10 Box:       inf    0.0000    0.0000 
H        -0.643134780     0.000000000     0.000000000    -1.116732889     0.437872081    -0.115125156
1
# Step: 11 Box:       inf    0.0000    0.0000 
H        -0.671506489     0.000000000     0.000000000    -1.174115641     0.437872081    -0.115125156
1
# Step: 12 Box:       inf    0.0000    0.0000 
H        -0.700940793     0.000000000     0.000000000    -1.172689880     0.437872081    -0.115125156
1
# Step: 13 Box:       inf    0.0000    0.0000 
H        -0.730544789     0.000000000     0.000000000    -1.194332515     0.437872081    -0.115125156
1
# Step: 14 Box:       inf    0.0000    0.0000 
H        -0.759686576     0.000000000     0.000000000    -1.162881315     0.437872081    -0.115125156
1
# Step: 15 Box:       inf    0.0000    0.0000 
H        -0.788824663     0.000000000     0.000000000    -1.192162049     0.437872081    -0.115125156
1
# Step: 16 Box:       inf    0.0000    0.0000 
H        -0.818186431     0.000000000     0.000000000    -1.187408475     0.437872081    -0.115125156
1
# Step: 17 Box:       inf    0.0000    0.0000 
H        -0.847921304     0.000000000     0.000000000    -1.201133141     0.437872081    -0.115125156
1
# Step: 18 Box:       inf    0.0000    0.0000 
H        -0.878198233     0.000000000     0.000000000    -1.213203361     0.437872081    -0.115125156
1
# Step: 19 Box:       inf    0.0000    0.0000 
H        -0.908743237     0.000000000     0.000000000    -1.216880635     0.437872081    -0.115125156
1
# Step: 20 Box:       inf    0.0000    0.0000 
H        -0.938520809     0.000000000     0.000000000    -1.159480397     0.437872081    -0.115125156
1
# Step: 21 Box:       inf    0.0000    0.0000 
H        -0.967651569     0.000000000     0.000000000    -1.184040893     0.437872081    -0.115125156
1
# Step: 22 Box:       inf    0.0000    0.0000 
H        -0.996442399     0.000000000     0.000000000    -1.142374821     0.437872081    -0.115125156
