1
# Step: 0 Box:       inf    0.0000    0.0000 
H         0.014805748     0.000000000     0.000000000     0.112193115    -0.437872081     0.115125156
1
# Step: 1 Box:       inf    0.0000    0.0000 
H         0.017907503     0.000000000     0.000000000     0.127125235    -0.437872081     0.115125156
1
# Step: 2 Box:       inf    0.0000    0.0000 
H         0.021544429     0.000000000     0.000000000     0.156635533    -0.437872081     0.115125156
1
# Step: 3 Box:       inf    0.0000    0.0000 
H         0.025533839     0.000000000     0.000000000     0.137942150    -0.437872081     0.115125156
1
# Step: 4 Box:       inf    0.0000    0.0000 
H         0.028991586     0.000000000     0.000000000     0.134955608    -0.437872081     0.115125156
1
# Step: 5 Box:       inf    0.0000    0.0000 
H         0.032545386     0.000000000     0.000000000     0.135083615    -0.437872081     0.115125156
1
# Step: 6 Box:       inf    0.0000    0.0000 
H         0.035850284     0.000000000     0.000000000     0.114089883    -0.437872081     0.115125156
1
# Step: 7 Box:       inf    0.0000    0.0000 
H         0.038575350     0.000000000     0.000000000     0.120006490    -0.437872081     0.115125156
1
# Step: 8 Box:       inf    0.0000    0.0000 
H         0.042517344     0.000000000     0.000000000     0.168767507    -0.437872081     0.115125156
1
# Step: 9 Box:       inf    0.0000    0.0000 
H         0.046587215     0.000000000     0.000000000     0.166215791    -0.437872081     0.115125156
1
# Step: 10 Box:       inf    0.0000    0.0000 
H         0.050716763     0.000000000     0.000000000     0.167467043    -0.437872081     0.115125156
1
# Step: 11 Box:       inf    0.0000    0.0000 
H         0.053675171     0.000000000     0.000000000     0.107767089    -0.437872081     0.115125156
1
# Step: 12 Box:       inf    0.0000    0.0000 
H         0.056481388     0.000000000     0.000000000     0.086241223    -0.437872081     0.115125156
1
# Step: 13 Box:       inf    0.0000    0.0000 
H         0.058901829     0.000000000     0.000000000     0.112836728    -0.437872081     0.115125156
1
# Step: 14 Box:       inf    0.0000    0.0000 
H         0.061577671     0.000000000     0.000000000     0.104883533    -0.437872081     0.115125156
1
# Step: 15 Box:       inf    0.0000    0.0000 
H         0.063886218     0.000000000     0.000000000     0.083792836    -0.437872081     0.115125156
1
# Step: 16 Box:       inf    0.0000    0.0000 
H         0.065584157     0.000000000     0.000000000     0.065634512    -0.437872081     0.115125156
1
# Step: 17 Box:       inf    0.0000    0.0000 
H         0.067687615     0.000000000     0.000000000     0.120883277    -0.437872081     0.115125156
1
# Step: 18 Box:       inf    0.0000    0.0000 
H         0.070580415     0.000000000     0.000000000     0.100208342    -0.437872081     0.115125156
1
# Step: 19 Box:       inf    0.0000    0.0000 
H         0.073219730     0.000000000     0.000000000     0.102991433    -0.437872081     0.115125156
1
# Step: 20 Box:       inf    0.0000    0.0000 
H         0.076449593     0.000000000     0.000000000     0.131218233    -0.437872081     0.115125156
1
# Step: 21 Box:       inf    0.0000    0.0000 
H         0.079982413     0.000000000     0.000000000     0.153290876    -0.437872081     0.115125156
1
# Step: 22 Box:       inf    0.0000    0.0000 
H         0.083884160     0.000000000     0.000000000     0.162090366    -0.437872081     0.115125156
1
# Step: 23 Box:       inf    0.0000    0.0000 
H         0.088875508     0.000000000     0.000000000     0.220875955    -0.437872081     0.115125156
1
# Step: 24 Box:       inf    0.0000    0.0000 
H         0.093443708     0.000000000     0.000000000     0.158448013    -0.437872081     0.115125156
1
# Step: 25 Box:       inf    0.0000    0.0000 
H         0.097745388     0.000000000     0.000000000     0.159663791    -0.437872081     0.115125156
1
# Step: 26 Box:       inf    0.0000    0.0000 
H         0.102474270     0.000000000     0.000000000     0.205767883    -0.437872081     0.115125156
1
# Step: 27 Box:       inf    0.0000    0.0000 
H         0.108415851     0.000000000     0.000000000     0.245530290    -0.437872081     0.115125156
1
# Step: 28 Box:       inf    0.0000    0.0000 
H         0.114059465     0.000000000     0.000000000     0.210112890    -0.437872081     0.115125156
1
# Step: 29 Box:       inf    0.0000    0.0000 
H         0.120175918     0.000000000     0.000000000     0.242492202    -0.437872081     0.115125156
1
# Step: 30 Box:       inf    0.0000    0.0000 
H         0.126580511     0.000000000     0.000000000     0.251184525    -0.437872081     0.115125156
1
# Step: 31 Box:       inf    0.0000    0.0000 
H         0.132420528     0.000000000     0.000000000     0.264767703    -0.437872081     0.115125156
1
# Step: 32 Box:       inf    0.0000    0.0000 
H         0.138268023     0.000000000     0.000000000     0.192847035    -0.437872081     0.115125156
1
# Step: 33 Box:       inf    0.0000    0.0000 
H         0.143893139     0.000000000     0.000000000     0.253926422    -0.437872081     0.115125156
1
# Step: 34 Box:       inf    0.0000    0.0000 
H         0.150246234     0.000000000     0.000000000     0.272387066    -0.437872081     0.115125156
1
# Step: 35 Box:       inf    0.0000    0.0000 
H         0.157100916     0.000000000     0.000000000     0.281446607    -0.437872081     0.115125156
1
# Step: 36 Box:       inf    0.0000    0.0000 
H         0.164606427     0.000000000     0.000000000     0.322145835    -0.437872081     0.115125156
1
# Step: 37 Box:       inf    0.0000    0.0000 
H         0.172277180     0.000000000     0.000000000     0.303735477    -0.437872081     0.115125156
1
# Step: 38 Box:       inf    0.0000    0.0000 
H         0.180511204     0.000000000     0.000000000     0.361073671    -0.437872081     0.115125156
1
# Step: 39 Box:       inf    0.0000    0.0000 
H         0.189451315     0.000000000     0.000000000     0.357826004    -0.437872081     0.115125156
1
# Step: 40 Box:       inf    0.0000    0.0000 
H         0.199140755     0.000000000     0.000000000     0.407269989    -0.437872081     0.115125156
1
# Step: 41 Box:       inf    0.0000    0.0000 
H         0.209641469     0.000000000     0.000000000     0.403018219    -0.437872081     0.115125156
1
# Step: 42 Box:       inf    0.0000    0.0000 
H         0.220626451     0.000000000     0.000000000     0.469522512    -0.437872081     0.115125156
1
# Step: 43 Box:       inf    0.0000    0.0000 
H         0.232577677     0.000000000     0.000000000     0.492381331    -0.437872081     0.115125156
1
# Step: 44 Box:       inf    0.0000    0.0000 
H         0.245816712     0.000000000     0.000000000     0.550260765    -0.437872081     0.115125156
1
# Step: 45 Box:       inf    0.0000    0.0000 
H         0.259600603     0.000000000     0.000000000     0.543903070    -0.437872081     0.115125156
1
# Step: 46 Box:       inf    0.0000    0.0000 
H         0.273752772     0.000000000     0.000000000     0.602147454    -0.437872081     0.115125156
1
# Step: 47 Box:       inf    0.0000    0.0000 
H         0.289113309     0.000000000     0.000000000     0.616619523    -0.437872081     0.115125156
1
# Step: 48 Box:       inf    0.0000    0.0000 
H         0.303471846     0.000000000     0.000000000     0.563315154    -0.437872081     0.115125156
1
# Step: 49 Box:       inf    0.0000    0.0000 
H         0.317588134     0.000000000     0.000000000     0.545052406    -0.437872081     0.115125156
1
# Step: 50 Box:       inf    0.0000    0.0000 
H         0.331218690     0.000000000     0.000000000     0.585590552    -0.437872081     0.115125156
1
# Step: 51 Box:       inf    0.0000    0.0000 
H         0.346464910     0.000000000     0.000000000     0.632893661    -0.437872081     0.115125156
1
# Step: 52 Box:       inf    0.0000    0.0000 
H         0.362382561     0.000000000     0.000000000     0.615526453    -0.437872081     0.115125156
1
# Step: 53 Box:       inf    0.0000    0.0000 
H         0.379565412     0.000000000     0.000000000     0.729695856    -0.437872081     0.115125156
1
# Step: 54 Box:       inf    0.0000    0.0000 
H         0.398082309     0.000000000     0.000000000     0.772128370    -0.437872081     0.115125156
1
# Step: 55 Box:       inf    0.0000    0.0000 
H         0.417204048     0.000000000     0.000000000     0.759923634    -0.437872081     0.115125156
1
# Step: 56 Box:       inf    0.0000    0.0000 
H         0.436359174     0.000000000     0.000000000     0.768224501    -0.437872081     0.115125156
1
# Step: 57 Box:       inf    0.0000    0.0000 
H         0.455626835     0.000000000     0.000000000     0.769258886    -0.437872081     0.115125156
1
# Step: 58 Box:       inf    0.0000    0.0000 
H         0.475140347     0.000000000     0.000000000     0.775819655    -0.437872081     0.115125156
1
# Step: 59 Box:       inf    0.0000    0.0000 
H         0.495141972     0.000000000     0.000000000     0.829897740    -0.437872081     0.115125156
1
# Step: 60 Box:       inf    0.0000    0.0000 
H         0.515530205     0.000000000     0.000000000     0.799632666    -0.437872081     0.115125156
1
# Step: 61 Box:       inf    0.0000    0.0000 
H         0.535536070     0.000000000     0.000000000     0.825409439    -0.437872081     0.115125156
1
# Step: 62 Box:       inf    0.0000    0.0000 
H         0.556812072     0.000000000     0.000000000     0.848383684    -0.437872081     0.115125156
1
# Step: 63 Box:       inf    0.0000    0.0000 
H         0.578038704     0.000000000     0.000000000     0.842609683    -0.437872081     0.115125156
1
# Step: 64 Box:       inf    0.0000    0.0000 
H         0.598883363     0.000000000     0.000000000     0.824021541    -0.437872081     0.115125156
1
# Step: 65 Box:       inf    0.0000    0.0000 
H         0.619739966     0.000000000     0.000000000     0.859863528    -0.437872081     0.115125156
1
# Step: 66 Box:       inf    0.0000    0.0000 
H         0.641744820     0.000000000     0.000000000     0.888782136    -0.437872081     0.115125156
1
# Step: 67 Box:       inf    0.0000    0.0000 
H         0.663890851     0.000000000     0.000000000     0.899278757    -0.437872081     0.115125156
1
# Step: 68 Box:       inf    0.0000    0.0000 
H         0.687203944     0.000000000     0.000000000     0.940678561    -0.437872081     0.115125156
1
# Step: 69 Box:       inf    0.0000    0.0000 
H         0.711111184     0.000000000     0.000000000     0.942697438    -0.437872081     0.115125156
1
# Step: 70 Box:       inf    0.0000    0.0000 
H         0.735253227     0.000000000     0.000000000     1.012666138    -0.437872081     0.115125156
1
# Step: 71 Box:       inf    0.0000    0.0000 
H         0.760705044     0.000000000     0.000000000     1.025298844    -0.437872081     0.115125156
1
# Step: 72 Box:       inf    0.0000    0.0000 
H         0.787609439     0.000000000     0.000000000     1.111252210    -0.437872081     0.115125156
1
# Step: 73 Box:       inf    0.0000    0.0000 
H         0.815387662     0.000000000     0.000000000     1.109957272    -0.437872081     0.115125156
1
# Step: 74 Box:       inf    0.0000    0.0000 
H         0.843335917     0.000000000     0.000000000     1.087202304    -0.437872081     0.115125156
1
# Step: 75 Box:       inf    0.0000    0.0000 
H         0.871170987     0.000000000     0.000000000     1.160372271    -0.437872081     0.115125156
1
# Step: 76 Box:       inf    0.0000    0.0000 
H         0.898839708     0.000000000     0.000000000     1.079690840    -0.437872081     0.115125156
1
# Step: 77 Box:       inf    0.0000    0.0000 
H         0.926426322     0.000000000     0.000000000     1.100770525    -0.437872081     0.115125156
1
# Step: 78 Box:       inf    0.0000    0.0000 
H         0.954354727     0.000000000     0.000000000     1.116619940    -0.437872081     0.115125156
1
# Step: 79 Box:       inf    0.0000    0.0000 
H         0.982534631     0.000000000     0.000000000     1.164779568    -0.437872081     0.115125156
1
# Step: 80 Box:       inf    0.0000    0.0000 
H         1.012070619     0.000000000     0.000000000     1.199342449    -0.437872081     0.115125156
