1
# Step: 0 Box:       inf    0.0000    0.0000 
H        -0.701189817     0.000000000     0.000000000    -0.221008178     0.286512192     0.027557173
1
# Step: 1 Box:       inf    0.0000    0.0000 
H        -0.707510226     0.000000000     0.000000000    -0.287397633     0.286512192     0.027557173
1
# Step: 2 Box:       inf    0.0000    0.0000 
H        -0.715156704     0.000000000     0.000000000    -0.333241527     0.286512192     0.027557173
1
# Step: 3 Box:       inf    0.0000    0.0000 
H        -0.722988001     0.000000000     0.000000000    -0.293987208     0.286512192     0.027557173
1
# Step: 4 Box:       inf    0.0000    0.0000 
H        -0.730116463     0.000000000     0.000000000    -0.295519671     0.286512192     0.027557173
1
# Step: 5 Box:       inf    0.0000    0.0000 
H        -0.738245250     0.000000000     0.000000000    -0.335260202     0.286512192     0.027557173
1
# Step: 6 Box:       inf    0.0000    0.0000 
H        -0.748197350     0.000000000     0.000000000    -0.426810533     0.286512192     0.027557173
1
# Step: 7 Box:       inf    0.0000    0.0000 
H        -0.759133671     0.000000000     0.000000000    -0.446408066     0.286512192     0.027557173
1
# Step: 8 Box:       inf    0.0000    0.0000 
H        -0.771496905     0.000000000     0.000000000    -0.511964405     0.286512192     0.027557173
1
# Step: 9 Box:       inf    0.0000    0.0000 
H        -0.784362409     0.000000000     0.000000000    -0.536188436     0.286512192     0.027557173
1
# Step: 10 Box:       inf    0.0000    0.0000 
H        -0.797901846     0.000000000     0.000000000    -0.578939746     0.286512192     0.027557173
1
# Step: 11 Box:       inf    0.0000    0.0000 
H        -0.811828138     0.000000000     0.000000000    -0.573259099     0.286512192     0.027557173
1
# Step: 12 Box:       inf    0.0000    0.0000 
H        -0.825846085     0.000000000     0.000000000    -0.546675919     0.286512192     0.027557173
1
# Step: 13 Box:       inf    0.0000    0.0000 
H        -0.839618333     0.000000000     0.000000000    -0.560729041     0.286512192     0.027557173
1
# Step: 14 Box:       inf    0.0000    0.0000 
H        -0.854026599     0.000000000     0.000000000    -0.606333165     0.286512192     0.027557173
1
# Step: 15 Box:       inf    0.0000    0.0000 
H        -0.869015440     0.000000000     0.000000000    -0.607093661     0.286512192     0.027557173
1
# Step: 16 Box:       inf    0.0000    0.0000 
H        -0.884047273     0.000000000     0.000000000    -0.587938349     0.286512192     0.027557173
1
# Step: 17 Box:       inf    0.0000    0.0000 
H        -0.899373955     0.000000000     0.000000000    -0.629797133     0.286512192     0.027557173
1
# Step: 18 Box:       inf    0.0000    0.0000 
H        -0.914939231     0.000000000     0.000000000    -0.646317879     0.286512192     0.027557173
1
# Step: 19 Box:       inf    0.0000    0.0000 
H        -0.930244917     0.000000000     0.000000000    -0.589443944     0.286512192     0.027557173
1
# Step: 20 Box:       inf    0.0000    0.0000 
H        -0.944314285     0.000000000     0.000000000    -0.555992985     0.286512192     0.027557173
1
# Step: 21 Box:       inf    0.0000    0.0000 
H        -0.958238257     0.000000000     0.000000000    -0.585564912     0.286512192     0.027557173
1
# Step: 22 Box:       inf    0.0000    0.0000 
H        -0.972866728     0.000000000     0.000000000    -0.600994608     0.286512192     0.027557173
1
# Step: 23 Box:       inf    0.0000    0.0000 
H        -0.987354966     0.000000000     0.000000000    -0.567827206     0.286512192     0.027557173
1
# Step: 24 Box:       inf    0.0000    0.0000 
H        -1.001823258     0.000000000     0.000000000    -0.571298245     0.286512192     0.027557173
