1
# Step: 0 Box:       inf    0.0000    0.0000 
H        -1.140299222     0.000000000     0.000000000    -0.173485185     0.118055199     0.120897976
1
# Step: 1 Box:       inf    0.0000    0.0000 
H        -1.143210751     0.000000000     0.000000000    -0.091893003     0.118055199     0.120897976
1
# Step: 2 Box:       inf    0.0000    0.0000 
H        -1.145132714     0.000000000     0.000000000    -0.058151163     0.118055199     0.120897976
1
# Step: 3 Box:       inf    0.0000    0.0000 
H        -1.146162378     0.000000000     0.000000000    -0.033930718     0.118055199     0.120897976
1
# Step: 4 Box:       inf    0.0000    0.0000 
H        -1.146108608     0.000000000     0.000000000     0.016390304     0.118055199     0.120897976
1
# Step: 5 Box:       inf    0.0000    0.0000 
H        -1.146020712     0.000000000     0.000000000    -0.000997794     0.118055199     0.120897976
1
# Step: 6 Box:       inf    0.0000    0.0000 
H        -1.145452751     0.000000000     0.000000000     0.060445822     0.118055199     0.120897976
1
# Step: 7 Box:       inf    0.0000    0.0000 
H        -1.143036293     0.000000000     0.000000000     0.097125324     0.118055199     0.120897976
1
# Step: 8 Box:       inf    0.0000    0.0000 
H        -1.140183392     0.000000000     0.000000000     0.137806647     0.118055199     0.120897976
1
# Step: 9 Box:       inf    0.0000    0.0000 
H        -1.136015001     0.000000000     0.000000000     0.170952206     0.118055199     0.120897976
1
# Step: 10 Box:       inf    0.0000    0.0000 
H        -1.132079897     0.000000000     0.000000000     0.158071346     0.118055199     0.120897976
1
# Step: 11 Box:       inf    0.0000    0.0000 
H        -1.128661785     0.000000000     0.000000000     0.142712077     0.118055199     0.120897976
1
# Step: 12 Box:       inf    0.0000    0.0000 
H        -1.124300137     0.000000000     0.000000000     0.203572657     0.118055199     0.120897976
1
# Step: 13 Box:       inf    0.0000    0.0000 
H        -1.118869879     0.000000000     0.000000000     0.260989986     0.118055199     0.120897976
1
# Step: 14 Box:       inf    0.0000    0.0000 
H        -1.111627174     0.000000000     0.000000000     0.318491005     0.118055199     0.120897976
1
# Step: 15 Box:       inf    0.0000    0.0000 
H        -1.103163500     0.000000000     0.000000000     0.343712944     0.118055199     0.120897976
1
# Step: 16 Box:       inf    0.0000    0.0000 
H        -1.094642325     0.000000000     0.000000000     0.305883106     0.118055199     0.120897976
1
# Step: 17 Box:       inf    0.0000    0.0000 
H        -1.086879946     0.000000000     0.000000000     0.302185635     0.118055199     0.120897976
1
# Step: 18 Box:       inf    0.0000    0.0000 
H        -1.079434157     0.000000000     0.000000000     0.297567118     0.118055199     0.120897976
1
# Step: 19 Box:       inf    0.0000    0.0000 
H        -1.072262629     0.000000000     0.000000000     0.275620193     0.118055199     0.120897976
1
# Step: 20 Box:       inf    0.0000    0.0000 
H        -1.065962178     0.000000000     0.000000000     0.256252094     0.118055199     0.120897976
1
# Step: 21 Box:       inf    0.0000    0.0000 
H        -1.058458106     0.000000000     0.000000000     0.322820649     0.118055199     0.120897976
1
# Step: 22 Box:       inf    0.0000    0.0000 
H        -1.050554410     0.000000000     0.000000000     0.326864510     0.118055199     0.120897976
1
# Step: 23 Box:       inf    0.0000    0.0000 
H        -1.042012357     0.000000000     0.000000000     0.362818253     0.118055199     0.120897976
1
# Step: 24 Box:       inf    0.0000    0.0000 
H        -1.032437785     0.000000000     0.000000000     0.394462027     0.118055199     0.120897976
1
# Step: 25 Box:       inf    0.0000    0.0000 
H        -1.022018282     0.000000000     0.000000000     0.438030092     0.118055199     0.120897976
1
# Step: 26 Box:       inf    0.0000    0.0000 
H        -1.010573900     0.000000000     0.000000000     0.440144786     0.118055199     0.120897976
1
# Step: 27 Box:       inf    0.0000    0.0000 
H        -0.999576185     0.000000000     0.000000000     0.417610901     0.118055199     0.120897976
1
# Step: 28 Box:       inf    0.0000    0.0000 
H        -0.988442809     0.000000000     0.000000000     0.463460009     0.118055199     0.120897976
