1
# Step: 0 Box:       inf    0.0000    0.0000 
H        -1.140299222     0.000000000     0.000000000     0.173485185    -0.118055199    -0.120897976
1
# Step: 1 Box:       inf    0.0000    0.0000 
H        -1.135076844     0.000000000     0.000000000     0.259287978    -0.118055199    -0.120897976
1
# Step: 2 Box:       inf    0.0000    0.0000 
H        -1.128470739     0.000000000     0.000000000     0.294321515    -0.118055199    -0.120897976
1
# Step: 3 Box:       inf    0.0000    0.0000 
H        -1.121211142     0.000000000     0.000000000     0.303756451    -0.118055199    -0.120897976
1
# Step: 4 Box:       inf    0.0000    0.0000 
H        -1.113078882     0.000000000     0.000000000     0.355006244    -0.118055199    -0.120897976
1
# Step: 5 Box:       inf    0.0000    0.0000 
H        -1.103718742     0.000000000     0.000000000     0.377618970    -0.118055199    -0.120897976
1
# Step: 6 Box:       inf    0.0000    0.0000 
H        -1.094836449     0.000000000     0.000000000     0.333758970    -0.118055199    -0.120897976
1
# Step: 7 Box:       inf    0.0000    0.0000 
H        -1.086637124     0.000000000     0.000000000     0.333992632    -0.118055199    -0.120897976
1
# Step: 8 Box:       inf    0.0000    0.0000 
H        -1.077989486     0.000000000     0.000000000     0.326967887    -0.118055199    -0.120897976
1
# Step: 9 Box:       inf    0.0000    0.0000 
H        -1.069682687     0.000000000     0.000000000     0.348946737    -0.118055199    -0.120897976
1
# Step: 10 Box:       inf    0.0000    0.0000 
H        -1.061221402     0.000000000     0.000000000     0.312395184    -0.118055199    -0.120897976
1
# Step: 11 Box:       inf    0.0000    0.0000 
H        -1.053284683     0.000000000     0.000000000     0.329792174    -0.118055199    -0.120897976
1
# Step: 12 Box:       inf    0.0000    0.0000 
H        -1.044732337     0.000000000     0.000000000     0.349471945    -0.118055199    -0.120897976
1
# Step: 13 Box:       inf    0.0000    0.0000 
H        -1.036018299     0.000000000     0.000000000     0.329873704    -0.118055199    -0.120897976
1
# Step: 14 Box:       inf    0.0000    0.0000 
H        -1.028018583     0.000000000     0.000000000     0.306635805    -0.118055199    -0.120897976
1
# Step: 15 Box:       inf    0.0000    0.0000 
H        -1.019934555     0.000000000     0.000000000     0.312714457    -0.118055199    -0.120897976
1
# Step: 16 Box:       inf    0.0000    0.0000 
H        -1.012372770     0.000000000     0.000000000     0.282433094    -0.118055199    -0.120897976
1
# Step: 17 Box:       inf    0.0000    0.0000 
H        -1.005003174     0.000000000     0.000000000     0.319494487    -0.118055199    -0.120897976
1
# Step: 18 Box:       inf    0.0000    0.0000 
H        -0.996596657     0.000000000     0.000000000     0.363921150    -0.118055199    -0.120897976
1
# Step: 19 Box:       inf    0.0000    0.0000 
H        -0.987673384     0.000000000     0.000000000     0.361165222    -0.118055199    -0.120897976
