1
# Step: 0 Box:       inf    0.0000    0.0000 
H        -0.804043384     0.000000000     0.000000000    -0.421276366    -0.162906424    -0.044615182
1
# Step: 1 Box:       inf    0.0000    0.0000 
H        -0.814702623     0.000000000     0.000000000    -0.442743744    -0.162906424    -0.044615182
1
# Step: 2 Box:       inf    0.0000    0.0000 
H        -0.826028362     0.000000000     0.000000000    -0.440200767    -0.162906424    -0.044615182
1
# Step: 3 Box:       inf    0.0000    0.0000 
H        -0.837678358     0.000000000     0.000000000    -0.486443946    -0.162906424    -0.044615182
1
# Step: 4 Box:       inf    0.0000    0.0000 
H        -0.850151796     0.000000000     0.000000000    -0.495981911    -0.162906424    -0.044615182
1
# Step: 5 Box:       inf    0.0000    0.0000 
H        -0.862935159     0.000000000     0.000000000    -0.538515647    -0.162906424    -0.044615182
1
# Step: 6 Box:       inf    0.0000    0.0000 
H        -0.876865859     0.000000000     0.000000000    -0.565784064    -0.162906424    -0.044615182
1
# Step: 7 Box:       inf    0.0000    0.0000 
H        -0.891651288     0.000000000     0.000000000    -0.611727737    -0.162906424    -0.044615182
1
# Step: 8 Box:       inf    0.0000    0.0000 
H        -0.907845078     0.000000000     0.000000000    -0.658759925    -0.162906424    -0.044615182
1
# Step: 9 Box:       inf    0.0000    0.0000 
H        -0.924376642     0.000000000     0.000000000    -0.646635021    -0.162906424    -0.044615182
1
# Step: 10 Box:       inf    0.0000    0.0000 
H        -0.941089410     0.000000000     0.000000000    -0.653436265    -0.162906424    -0.044615182
1
# Step: 11 Box:       inf    0.0000    0.0000 
H        -0.957210606     0.000000000     0.000000000    -0.635666082    -0.162906424    -0.044615182
1
# Step: 12 Box:       inf    0.0000    0.0000 
H        -0.972864466     0.000000000     0.000000000    -0.637018605    -0.162906424    -0.044615182
1
# Step: 13 Box:       inf    0.0000    0.0000 
H        -0.988805157     0.000000000     0.000000000    -0.632415273    -0.162906424    -0.044615182
1
# Step: 14 Box:       inf    0.0000    0.0000 
H        -1.004751833     0.000000000     0.000000000    -0.621831489    -0.162906424    -0.044615182
