1
# Step: 0 Box:       inf    0.0000    0.0000 
H        -0.802044613     0.000000000     0.000000000    -0.246246165     0.162906424     0.044615182
1
# Step: 1 Box:       inf    0.0000    0.0000 
H        -0.808332396     0.000000000     0.000000000    -0.236774942     0.162906424     0.044615182
1
# Step: 2 Box:       inf    0.0000    0.0000 
H        -0.815304364     0.000000000     0.000000000    -0.340828337     0.162906424     0.044615182
1
# Step: 3 Box:       inf    0.0000    0.0000 
H        -0.824531190     0.000000000     0.000000000    -0.373620318     0.162906424     0.044615182
1
# Step: 4 Box:       inf    0.0000    0.0000 
H        -0.834778637     0.000000000     0.000000000    -0.460235823     0.162906424     0.044615182
1
# Step: 5 Box:       inf    0.0000    0.0000 
H        -0.846417100     0.000000000     0.000000000    -0.479200028     0.162906424     0.044615182
1
# Step: 6 Box:       inf    0.0000    0.0000 
H        -0.858345976     0.000000000     0.000000000    -0.465771248     0.162906424     0.044615182
1
# Step: 7 Box:       inf    0.0000    0.0000 
H        -0.869863400     0.000000000     0.000000000    -0.485706059     0.162906424     0.044615182
1
# Step: 8 Box:       inf    0.0000    0.0000 
H        -0.882487795     0.000000000     0.000000000    -0.497420674     0.162906424     0.044615182
1
# Step: 9 Box:       inf    0.0000    0.0000 
H        -0.895026806     0.000000000     0.000000000    -0.542914652     0.162906424     0.044615182
1
# Step: 10 Box:       inf    0.0000    0.0000 
H        -0.908246229     0.000000000     0.000000000    -0.516448792     0.162906424     0.044615182
1
# Step: 11 Box:       inf    0.0000    0.0000 
H        -0.921422436     0.000000000     0.000000000    -0.552779327     0.162906424     0.044615182
1
# Step: 12 Box:       inf    0.0000    0.0000 
H        -0.935017162     0.000000000     0.000000000    -0.545906625     0.162906424     0.044615182
1
# Step: 13 Box:       inf    0.0000    0.0000 
H        -0.948921107     0.000000000     0.000000000    -0.579361793     0.162906424     0.044615182
1
# Step: 14 Box:       inf    0.0000    0.0000 
H        -0.963905472     0.000000000     0.000000000    -0.602034381     0.162906424     0.044615182
1
# Step: 15 Box:       inf    0.0000    0.0000 
H        -0.979284039     0.000000000     0.000000000    -0.605826325     0.162906424     0.044615182
1
# Step: 16 Box:       inf    0.0000    0.0000 
H        -0.995235423     0.000000000     0.000000000    -0.667253998     0.162906424     0.044615182
