1
# Step: 0 Box:       inf    0.0000    0.0000 
H        -0.761629120     0.000000000     0.000000000    -0.198903066     0.162906424     0.044615182
1
# Step: 1 Box:       inf    0.0000    0.0000 
H        -0.766614475     0.000000000     0.000000000    -0.214574250     0.162906424     0.044615182
1
# Step: 2 Box:       inf    0.0000    0.0000 
H        -0.772159032     0.000000000     0.000000000    -0.225876050     0.162906424     0.044615182
1
# Step: 3 Box:       inf    0.0000    0.0000 
H        -0.778286623     0.000000000     0.000000000    -0.261332993     0.162906424     0.044615182
1
# Step: 4 Box:       inf    0.0000    0.0000 
H        -0.784392685     0.000000000     0.000000000    -0.237913477     0.162906424     0.044615182
1
# Step: 5 Box:       inf    0.0000    0.0000 
H        -0.790383361     0.000000000     0.000000000    -0.255075577     0.162906424     0.044615182
1
# Step: 6 Box:       inf    0.0000    0.0000 
H        -0.796393379     0.000000000     0.000000000    -0.219262179     0.162906424     0.044615182
1
# Step: 7 Box:       inf    0.0000    0.0000 
H        -0.802044613     0.000000000     0.000000000    -0.246246165     0.162906424     0.044615182
