1
# Step: 0 Box:       inf    0.0000    0.0000 
H        -0.600115511     0.000000000     0.000000000    -0.430948229    -0.016933693    -0.002992472
1
# Step: 1 Box:       inf    0.0000    0.0000 
H        -0.611786950     0.000000000     0.000000000    -0.488260963    -0.016933693    -0.002992472
1
# Step: 2 Box:       inf    0.0000    0.0000 
H        -0.624081724     0.000000000     0.000000000    -0.517302025    -0.016933693    -0.002992472
1
# Step: 3 Box:       inf    0.0000    0.0000 
H        -0.638742501     0.000000000     0.000000000    -0.667076611    -0.016933693    -0.002992472
1
# Step: 4 Box:       inf    0.0000    0.0000 
H        -0.655969910     0.000000000     0.000000000    -0.719153033    -0.016933693    -0.002992472
1
# Step: 5 Box:       inf    0.0000    0.0000 
H        -0.674330220     0.000000000     0.000000000    -0.748928347    -0.016933693    -0.002992472
1
# Step: 6 Box:       inf    0.0000    0.0000 
H        -0.693190250     0.000000000     0.000000000    -0.761958001    -0.016933693    -0.002992472
1
# Step: 7 Box:       inf    0.0000    0.0000 
H        -0.712736949     0.000000000     0.000000000    -0.787697193    -0.016933693    -0.002992472
1
# Step: 8 Box:       inf    0.0000    0.0000 
H        -0.732690383     0.000000000     0.000000000    -0.814165216    -0.016933693    -0.002992472
1
# Step: 9 Box:       inf    0.0000    0.0000 
H        -0.754091167     0.000000000     0.000000000    -0.909616336    -0.016933693    -0.002992472
1
# Step: 10 Box:       inf    0.0000    0.0000 
H        -0.777410968     0.000000000     0.000000000    -0.960845272    -0.016933693    -0.002992472
1
# Step: 11 Box:       inf    0.0000    0.0000 
H        -0.801102613     0.000000000     0.000000000    -0.921633032    -0.016933693    -0.002992472
1
# Step: 12 Box:       inf    0.0000    0.0000 
H        -0.824106713     0.000000000     0.000000000    -0.900234319    -0.016933693    -0.002992472
1
# Step: 13 Box:       inf    0.0000    0.0000 
H        -0.847474867     0.000000000     0.000000000    -0.954782390    -0.016933693    -0.002992472
1
# Step: 14 Box:       inf    0.0000    0.0000 
H        -0.871451254     0.000000000     0.000000000    -0.941615632    -0.016933693    -0.002992472
1
# Step: 15 Box:       inf    0.0000    0.0000 
H        -0.894604662     0.000000000     0.000000000    -0.903272275    -0.016933693    -0.002992472
1
# Step: 16 Box:       inf    0.0000    0.0000 
H        -0.917433422     0.000000000     0.000000000    -0.910623349    -0.016933693    -0.002992472
1
# Step: 17 Box:       inf    0.0000    0.0000 
H        -0.940178423     0.000000000     0.000000000    -0.905159103    -0.016933693    -0.002992472
1
# Step: 18 Box:       inf    0.0000    0.0000 
H        -0.963388144     0.000000000     0.000000000    -0.937871461    -0.016933693    -0.002992472
1
# Step: 19 Box:       inf    0.0000    0.0000 
H        -0.986696738     0.000000000     0.000000000    -0.969252625    -0.016933693    -0.002992472
1
# Step: 20 Box:       inf    0.0000    0.0000 
H        -1.011599014     0.000000000     0.000000000    -1.014294826    -0.016933693    -0.002992472
