1
# Step: 0 Box:       inf    0.0000    0.0000 
H        -0.602750491     0.000000000     0.000000000    -0.393610837     0.016933693     0.002992472
1
# Step: 1 Box:       inf    0.0000    0.0000 
H        -0.613490146     0.000000000     0.000000000    -0.499013420     0.016933693     0.002992472
1
# Step: 2 Box:       inf    0.0000    0.0000 
H        -0.625577730     0.000000000     0.000000000    -0.496900525     0.016933693     0.002992472
1
# Step: 3 Box:       inf    0.0000    0.0000 
H        -0.639432394     0.000000000     0.000000000    -0.588401969     0.016933693     0.002992472
1
# Step: 4 Box:       inf    0.0000    0.0000 
H        -0.654560461     0.000000000     0.000000000    -0.625927143     0.016933693     0.002992472
1
# Step: 5 Box:       inf    0.0000    0.0000 
H        -0.670240391     0.000000000     0.000000000    -0.629652017     0.016933693     0.002992472
1
# Step: 6 Box:       inf    0.0000    0.0000 
H        -0.686116373     0.000000000     0.000000000    -0.633886275     0.016933693     0.002992472
1
# Step: 7 Box:       inf    0.0000    0.0000 
H        -0.702942524     0.000000000     0.000000000    -0.684228078     0.016933693     0.002992472
1
# Step: 8 Box:       inf    0.0000    0.0000 
H        -0.719866393     0.000000000     0.000000000    -0.664218692     0.016933693     0.002992472
1
# Step: 9 Box:       inf    0.0000    0.0000 
H        -0.737074151     0.000000000     0.000000000    -0.692305420     0.016933693     0.002992472
1
# Step: 10 Box:       inf    0.0000    0.0000 
H        -0.754440940     0.000000000     0.000000000    -0.714185707     0.016933693     0.002992472
1
# Step: 11 Box:       inf    0.0000    0.0000 
H        -0.773321278     0.000000000     0.000000000    -0.805592934     0.016933693     0.002992472
1
# Step: 12 Box:       inf    0.0000    0.0000 
H        -0.793771366     0.000000000     0.000000000    -0.804978562     0.016933693     0.002992472
1
# Step: 13 Box:       inf    0.0000    0.0000 
H        -0.813965448     0.000000000     0.000000000    -0.793397136     0.016933693     0.002992472
1
# Step: 14 Box:       inf    0.0000    0.0000 
H        -0.834138754     0.000000000     0.000000000    -0.796406463     0.016933693     0.002992472
1
# Step: 15 Box:       inf    0.0000    0.0000 
H        -0.853907489     0.000000000     0.000000000    -0.780280759     0.016933693     0.002992472
1
# Step: 16 Box:       inf    0.0000    0.0000 
H        -0.873776243     0.000000000     0.000000000    -0.792271714     0.016933693     0.002992472
1
# Step: 17 Box:       inf    0.0000    0.0000 
H        -0.894108404     0.000000000     0.000000000    -0.787400822     0.016933693     0.002992472
1
# Step: 18 Box:       inf    0.0000    0.0000 
H        -0.914801771     0.000000000     0.000000000    -0.864319772     0.016933693     0.002992472
1
# Step: 19 Box:       inf    0.0000    0.0000 
H        -0.936001478     0.000000000     0.000000000    -0.840420694     0.016933693     0.002992472
1
# Step: 20 Box:       inf    0.0000    0.0000 
H        -0.956564751     0.000000000     0.000000000    -0.842270186     0.016933693     0.002992472
1
# Step: 21 Box:       inf    0.0000    0.0000 
H        -0.978082354     0.000000000     0.000000000    -0.873254666     0.016933693     0.002992472
1
# Step: 22 Box:       inf    0.0000    0.0000 
H        -0.998817604     0.000000000     0.000000000    -0.796126369     0.016933693     0.002992472
