1
# Step: 0 Box:       inf    0.0000    0.0000 
H        -0.579023801     0.000000000     0.000000000     0.208191364    -0.016933693    -0.002992472
1
# Step: 1 Box:       inf    0.0000    0.0000 
H        -0.574213365     0.000000000     0.000000000     0.154726802    -0.016933693    -0.002992472
1
# Step: 2 Box:       inf    0.0000    0.0000 
H        -0.570689115     0.000000000     0.000000000     0.099325203    -0.016933693    -0.002992472
1
# Step: 3 Box:       inf    0.0000    0.0000 
H        -0.568184473     0.000000000     0.000000000     0.070425696    -0.016933693    -0.002992472
1
# Step: 4 Box:       inf    0.0000    0.0000 
H        -0.566570417     0.000000000     0.000000000     0.053894568    -0.016933693    -0.002992472
1
# Step: 5 Box:       inf    0.0000    0.0000 
H        -0.564239078     0.000000000     0.000000000     0.120674146    -0.016933693    -0.002992472
1
# Step: 6 Box:       inf    0.0000    0.0000 
H        -0.562284979     0.000000000     0.000000000     0.072019825    -0.016933693    -0.002992472
1
# Step: 7 Box:       inf    0.0000    0.0000 
H        -0.561516765     0.000000000     0.000000000     0.000789143    -0.016933693    -0.002992472
1
# Step: 8 Box:       inf    0.0000    0.0000 
H        -0.562565286     0.000000000     0.000000000    -0.081992439    -0.016933693    -0.002992472
1
# Step: 9 Box:       inf    0.0000    0.0000 
H        -0.565036782     0.000000000     0.000000000    -0.108909511    -0.016933693    -0.002992472
1
# Step: 10 Box:       inf    0.0000    0.0000 
H        -0.568865455     0.000000000     0.000000000    -0.182115223    -0.016933693    -0.002992472
1
# Step: 11 Box:       inf    0.0000    0.0000 
H        -0.574211166     0.000000000     0.000000000    -0.260411933    -0.016933693    -0.002992472
1
# Step: 12 Box:       inf    0.0000    0.0000 
H        -0.581249146     0.000000000     0.000000000    -0.299824311    -0.016933693    -0.002992472
1
# Step: 13 Box:       inf    0.0000    0.0000 
H        -0.589701756     0.000000000     0.000000000    -0.395363449    -0.016933693    -0.002992472
1
# Step: 14 Box:       inf    0.0000    0.0000 
H        -0.600115511     0.000000000     0.000000000    -0.430948229    -0.016933693    -0.002992472
