1
# Step: 0 Box:       inf    0.0000    0.0000 
H        -0.579023801     0.000000000     0.000000000    -0.208191364     0.016933693     0.002992472
1
# Step: 1 Box:       inf    0.0000    0.0000 
H        -0.585030230     0.000000000     0.000000000    -0.277440910     0.016933693     0.002992472
1
# Step: 2 Box:       inf    0.0000    0.0000 
H        -0.592794524     0.000000000     0.000000000    -0.363370857     0.016933693     0.002992472
1
# Step: 3 Box:       inf    0.0000    0.0000 
H        -0.602750491     0.000000000     0.000000000    -0.393610837     0.016933693     0.002992472
