1
# Step: 0 Box:       inf    0.0000    0.0000 
H        -0.479937847     0.000000000     0.000000000    -0.022127981     0.024994672     0.051810956
1
# Step: 1 Box:       inf    0.0000    0.0000 
H        -0.480108612     0.000000000     0.000000000     0.002186893     0.024994672     0.051810956
1
# Step: 2 Box:       inf    0.0000    0.0000 
H        -0.480142185     0.000000000     0.000000000     0.003445199     0.024994672     0.051810956
1
# Step: 3 Box:       inf    0.0000    0.0000 
H        -0.480401110     0.000000000     0.000000000    -0.018768338     0.024994672     0.051810956
1
# Step: 4 Box:       inf    0.0000    0.0000 
H        -0.480985992     0.000000000     0.000000000     0.005107234     0.024994672     0.051810956
1
# Step: 5 Box:       inf    0.0000    0.0000 
H        -0.481982073     0.000000000     0.000000000    -0.054482028     0.024994672     0.051810956
1
# Step: 6 Box:       inf    0.0000    0.0000 
H        -0.483268783     0.000000000     0.000000000    -0.061801253     0.024994672     0.051810956
1
# Step: 7 Box:       inf    0.0000    0.0000 
H        -0.484591957     0.000000000     0.000000000    -0.041828041     0.024994672     0.051810956
1
# Step: 8 Box:       inf    0.0000    0.0000 
H        -0.487229154     0.000000000     0.000000000    -0.153617914     0.024994672     0.051810956
1
# Step: 9 Box:       inf    0.0000    0.0000 
H        -0.492112779     0.000000000     0.000000000    -0.231812854     0.024994672     0.051810956
1
# Step: 10 Box:       inf    0.0000    0.0000 
H        -0.498841694     0.000000000     0.000000000    -0.301785356     0.024994672     0.051810956
1
# Step: 11 Box:       inf    0.0000    0.0000 
H        -0.506321697     0.000000000     0.000000000    -0.318141831     0.024994672     0.051810956
1
# Step: 12 Box:       inf    0.0000    0.0000 
H        -0.515584271     0.000000000     0.000000000    -0.388676753     0.024994672     0.051810956
1
# Step: 13 Box:       inf    0.0000    0.0000 
H        -0.525536404     0.000000000     0.000000000    -0.425597600     0.024994672     0.051810956
1
# Step: 14 Box:       inf    0.0000    0.0000 
H        -0.536899603     0.000000000     0.000000000    -0.454983966     0.024994672     0.051810956
1
# Step: 15 Box:       inf    0.0000    0.0000 
H        -0.548963787     0.000000000     0.000000000    -0.480821271     0.024994672     0.051810956
1
# Step: 16 Box:       inf    0.0000    0.0000 
H        -0.561494732     0.000000000     0.000000000    -0.517380419     0.024994672     0.051810956
1
# Step: 17 Box:       inf    0.0000    0.0000 
H        -0.574700019     0.000000000     0.000000000    -0.534837838     0.024994672     0.051810956
1
# Step: 18 Box:       inf    0.0000    0.0000 
H        -0.588938051     0.000000000     0.000000000    -0.561448486     0.024994672     0.051810956
1
# Step: 19 Box:       inf    0.0000    0.0000 
H        -0.603823673     0.000000000     0.000000000    -0.632635444     0.024994672     0.051810956
