1
# Step: 0 Box:       inf    0.0000    0.0000 
H        -0.076579917     0.000000000     0.000000000    -0.139958323     0.377645252     0.058969164
1
# Step: 1 Box:       inf    0.0000    0.0000 
H        -0.080967987     0.000000000     0.000000000    -0.190893862     0.377645252     0.058969164
1
# Step: 2 Box:       inf    0.0000    0.0000 
H        -0.085154129     0.000000000     0.000000000    -0.172623752     0.377645252     0.058969164
1
# Step: 3 Box:       inf    0.0000    0.0000 
H        -0.089891615     0.000000000     0.000000000    -0.218742767     0.377645252     0.058969164
1
# Step: 4 Box:       inf    0.0000    0.0000 
H        -0.095390178     0.000000000     0.000000000    -0.212887745     0.377645252     0.058969164
1
# Step: 5 Box:       inf    0.0000    0.0000 
H        -0.100778668     0.000000000     0.000000000    -0.240452908     0.377645252     0.058969164
1
# Step: 6 Box:       inf    0.0000    0.0000 
H        -0.107002624     0.000000000     0.000000000    -0.276988926     0.377645252     0.058969164
1
# Step: 7 Box:       inf    0.0000    0.0000 
H        -0.113382238     0.000000000     0.000000000    -0.240183300     0.377645252     0.058969164
1
# Step: 8 Box:       inf    0.0000    0.0000 
H        -0.120116933     0.000000000     0.000000000    -0.297231238     0.377645252     0.058969164
1
# Step: 9 Box:       inf    0.0000    0.0000 
H        -0.127794670     0.000000000     0.000000000    -0.317810439     0.377645252     0.058969164
1
# Step: 10 Box:       inf    0.0000    0.0000 
H        -0.135280760     0.000000000     0.000000000    -0.263656900     0.377645252     0.058969164
1
# Step: 11 Box:       inf    0.0000    0.0000 
H        -0.141227025     0.000000000     0.000000000    -0.231897171     0.377645252     0.058969164
1
# Step: 12 Box:       inf    0.0000    0.0000 
H        -0.147136355     0.000000000     0.000000000    -0.263730221     0.377645252     0.058969164
1
# Step: 13 Box:       inf    0.0000    0.0000 
H        -0.154180493     0.000000000     0.000000000    -0.313077398     0.377645252     0.058969164
1
# Step: 14 Box:       inf    0.0000    0.0000 
H        -0.162289922     0.000000000     0.000000000    -0.334330584     0.377645252     0.058969164
1
# Step: 15 Box:       inf    0.0000    0.0000 
H        -0.171007986     0.000000000     0.000000000    -0.352293047     0.377645252     0.058969164
1
# Step: 16 Box:       inf    0.0000    0.0000 
H        -0.179691494     0.000000000     0.000000000    -0.347183628     0.377645252     0.058969164
1
# Step: 17 Box:       inf    0.0000    0.0000 
H        -0.188037087     0.000000000     0.000000000    -0.333020103     0.377645252     0.058969164
1
# Step: 18 Box:       inf    0.0000    0.0000 
H        -0.196356685     0.000000000     0.000000000    -0.358620909     0.377645252     0.058969164
1
# Step: 19 Box:       inf    0.0000    0.0000 
H        -0.204973556     0.000000000     0.000000000    -0.343567153     0.377645252     0.058969164
1
# Step: 20 Box:       inf    0.0000    0.0000 
H        -0.214001333     0.000000000     0.000000000    -0.341795574     0.377645252     0.058969164
1
# Step: 21 Box:       inf    0.0000    0.0000 
H        -0.222325911     0.000000000     0.000000000    -0.334294525     0.377645252     0.058969164
1
# Step: 22 Box:       inf    0.0000    0.0000 
H        -0.230380049     0.000000000     0.000000000    -0.323161863     0.377645252     0.058969164
1
# Step: 23 Box:       inf    0.0000    0.0000 
H        -0.238841794     0.000000000     0.000000000    -0.331733404     0.377645252     0.058969164
1
# Step: 24 Box:       inf    0.0000    0.0000 
H        -0.246641469     0.000000000     0.000000000    -0.337450679     0.377645252     0.058969164
1
# Step: 25 Box:       inf    0.0000    0.0000 
H        -0.255690976     0.000000000     0.000000000    -0.384433503     0.377645252     0.058969164
1
# Step: 26 Box:       inf    0.0000    0.0000 
H        -0.265280460     0.000000000     0.000000000    -0.380980010     0.377645252     0.058969164
1
# Step: 27 Box:       inf    0.0000    0.0000 
H        -0.275527560     0.000000000     0.000000000    -0.403874588     0.377645252     0.058969164
1
# Step: 28 Box:       inf    0.0000    0.0000 
H        -0.285771031     0.000000000     0.000000000    -0.408071581     0.377645252     0.058969164
1
# Step: 29 Box:       inf    0.0000    0.0000 
H        -0.296670048     0.000000000     0.000000000    -0.434460431     0.377645252     0.058969164
1
# Step: 30 Box:       inf    0.0000    0.0000 
H        -0.308234743     0.000000000     0.000000000    -0.469756753     0.377645252     0.058969164
1
# Step: 31 Box:       inf    0.0000    0.0000 
H        -0.320278320     0.000000000     0.000000000    -0.503422887     0.377645252     0.058969164
1
# Step: 32 Box:       inf    0.0000    0.0000 
H        -0.333423145     0.000000000     0.000000000    -0.573751484     0.377645252     0.058969164
1
# Step: 33 Box:       inf    0.0000    0.0000 
H        -0.347832163     0.000000000     0.000000000    -0.565505770     0.377645252     0.058969164
1
# Step: 34 Box:       inf    0.0000    0.0000 
H        -0.361718981     0.000000000     0.000000000    -0.557803726     0.377645252     0.058969164
1
# Step: 35 Box:       inf    0.0000    0.0000 
H        -0.376533641     0.000000000     0.000000000    -0.643246749     0.377645252     0.058969164
1
# Step: 36 Box:       inf    0.0000    0.0000 
H        -0.393057228     0.000000000     0.000000000    -0.633996711     0.377645252     0.058969164
1
# Step: 37 Box:       inf    0.0000    0.0000 
H        -0.409525966     0.000000000     0.000000000    -0.671586895     0.377645252     0.058969164
