1
# Step: 0 Box:       inf    0.0000    0.0000 
H        -0.409525966     0.000000000     0.000000000    -0.671586895     0.377645252     0.058969164
1
# Step: 1 Box:       inf    0.0000    0.0000 
H        -0.425868252     0.000000000     0.000000000    -0.671224594     0.377645252     0.058969164
1
# Step: 2 Box:       inf    0.0000    0.0000 
H        -0.443660005     0.000000000     0.000000000    -0.741558335     0.377645252     0.058969164
1
# Step: 3 Box:       inf    0.0000    0.0000 
H        -0.461635236     0.000000000     0.000000000    -0.701484089     0.377645252     0.058969164
1
# Step: 4 Box:       inf    0.0000    0.0000 
H        -0.479235393     0.000000000     0.000000000    -0.690118323     0.377645252     0.058969164
1
# Step: 5 Box:       inf    0.0000    0.0000 
H        -0.496457254     0.000000000     0.000000000    -0.681362771     0.377645252     0.058969164
1
# Step: 6 Box:       inf    0.0000    0.0000 
H        -0.514443873     0.000000000     0.000000000    -0.756419657     0.377645252     0.058969164
1
# Step: 7 Box:       inf    0.0000    0.0000 
H        -0.533867401     0.000000000     0.000000000    -0.788685400     0.377645252     0.058969164
1
# Step: 8 Box:       inf    0.0000    0.0000 
H        -0.554195360     0.000000000     0.000000000    -0.834261926     0.377645252     0.058969164
1
# Step: 9 Box:       inf    0.0000    0.0000 
H        -0.575987241     0.000000000     0.000000000    -0.907779443     0.377645252     0.058969164
1
# Step: 10 Box:       inf    0.0000    0.0000 
H        -0.598985707     0.000000000     0.000000000    -0.916030566     0.377645252     0.058969164
1
# Step: 11 Box:       inf    0.0000    0.0000 
H        -0.622484027     0.000000000     0.000000000    -0.944386810     0.377645252     0.058969164
1
# Step: 12 Box:       inf    0.0000    0.0000 
H        -0.646711709     0.000000000     0.000000000    -1.002773271     0.377645252     0.058969164
1
# Step: 13 Box:       inf    0.0000    0.0000 
H        -0.672677092     0.000000000     0.000000000    -1.044532683     0.377645252     0.058969164
1
# Step: 14 Box:       inf    0.0000    0.0000 
H        -0.699043197     0.000000000     0.000000000    -1.079417009     0.377645252     0.058969164
1
# Step: 15 Box:       inf    0.0000    0.0000 
H        -0.726890821     0.000000000     0.000000000    -1.136765619     0.377645252     0.058969164
1
# Step: 16 Box:       inf    0.0000    0.0000 
H        -0.755984693     0.000000000     0.000000000    -1.169688168     0.377645252     0.058969164
1
# Step: 17 Box:       inf    0.0000    0.0000 
H        -0.785862636     0.000000000     0.000000000    -1.227021480     0.377645252     0.058969164
1
# Step: 18 Box:       inf    0.0000    0.0000 
H        -0.817716937     0.000000000     0.000000000    -1.313704123     0.377645252     0.058969164
1
# Step: 19 Box:       inf    0.0000    0.0000 
H        -0.851024832     0.000000000     0.000000000    -1.351075467     0.377645252     0.058969164
1
# Step: 20 Box:       inf    0.0000    0.0000 
H        -0.884989840     0.000000000     0.000000000    -1.372222316     0.377645252     0.058969164
1
# Step: 21 Box:       inf    0.0000    0.0000 
H        -0.919936108     0.000000000     0.000000000    -1.412740485     0.377645252     0.058969164
1
# Step: 22 Box:       inf    0.0000    0.0000 
H        -0.955976015     0.000000000     0.000000000    -1.448597127     0.377645252     0.058969164
1
# Step: 23 Box:       inf    0.0000    0.0000 
H        -0.992211433     0.000000000     0.000000000    -1.458625729     0.377645252     0.058969164
