1
# Step: 0 Box:       inf    0.0000    0.0000 
H        -0.781729539     0.000000000     0.000000000    -0.437698981    -0.426562970     0.087356774
1
# Step: 1 Box:       inf    0.0000    0.0000 
H        -0.793022350     0.000000000     0.000000000    -0.445914516    -0.426562970     0.087356774
1
# Step: 2 Box:       inf    0.0000    0.0000 
H        -0.804519897     0.000000000     0.000000000    -0.478746442    -0.426562970     0.087356774
