1
# Step: 0 Box:       inf    0.0000    0.0000 
H        -0.309178596     0.000000000     0.000000000    -0.582094891    -0.206718069     0.114738122
1
# Step: 1 Box:       inf    0.0000    0.0000 
H        -0.324292054     0.000000000     0.000000000    -0.618721433    -0.206718069     0.114738122
1
# Step: 2 Box:       inf    0.0000    0.0000 
H        -0.340388897     0.000000000     0.000000000    -0.660409677    -0.206718069     0.114738122
1
# Step: 3 Box:       inf    0.0000    0.0000 
H        -0.357335202     0.000000000     0.000000000    -0.698944532    -0.206718069     0.114738122
1
# Step: 4 Box:       inf    0.0000    0.0000 
H        -0.375197608     0.000000000     0.000000000    -0.715068678    -0.206718069     0.114738122
1
# Step: 5 Box:       inf    0.0000    0.0000 
H        -0.394118740     0.000000000     0.000000000    -0.799031345    -0.206718069     0.114738122
1
# Step: 6 Box:       inf    0.0000    0.0000 
H        -0.414313541     0.000000000     0.000000000    -0.795669666    -0.206718069     0.114738122
1
# Step: 7 Box:       inf    0.0000    0.0000 
H        -0.434133709     0.000000000     0.000000000    -0.821447417    -0.206718069     0.114738122
1
# Step: 8 Box:       inf    0.0000    0.0000 
H        -0.454817975     0.000000000     0.000000000    -0.851286791    -0.206718069     0.114738122
1
# Step: 9 Box:       inf    0.0000    0.0000 
H        -0.476402105     0.000000000     0.000000000    -0.896912615    -0.206718069     0.114738122
1
# Step: 10 Box:       inf    0.0000    0.0000 
H        -0.499866916     0.000000000     0.000000000    -0.963985182    -0.206718069     0.114738122
1
# Step: 11 Box:       inf    0.0000    0.0000 
H        -0.524058006     0.000000000     0.000000000    -0.982000697    -0.206718069     0.114738122
1
# Step: 12 Box:       inf    0.0000    0.0000 
H        -0.548478240     0.000000000     0.000000000    -0.964253062    -0.206718069     0.114738122
1
# Step: 13 Box:       inf    0.0000    0.0000 
H        -0.572927143     0.000000000     0.000000000    -0.993648198    -0.206718069     0.114738122
1
# Step: 14 Box:       inf    0.0000    0.0000 
H        -0.597712285     0.000000000     0.000000000    -1.016709002    -0.206718069     0.114738122
1
# Step: 15 Box:       inf    0.0000    0.0000 
H        -0.623513834     0.000000000     0.000000000    -1.048372696    -0.206718069     0.114738122
1
# Step: 16 Box:       inf    0.0000    0.0000 
H        -0.650174258     0.000000000     0.000000000    -1.092229674    -0.206718069     0.114738122
1
# Step: 17 Box:       inf    0.0000    0.0000 
H        -0.677502868     0.000000000     0.000000000    -1.086080081    -0.206718069     0.114738122
1
# Step: 18 Box:       inf    0.0000    0.0000 
H        -0.704785638     0.000000000     0.000000000    -1.090825468    -0.206718069     0.114738122
1
# Step: 19 Box:       inf    0.0000    0.0000 
H        -0.733436421     0.000000000     0.000000000    -1.200770362    -0.206718069     0.114738122
1
# Step: 20 Box:       inf    0.0000    0.0000 
H        -0.763599438     0.000000000     0.000000000    -1.204196588    -0.206718069     0.114738122
1
# Step: 21 Box:       inf    0.0000    0.0000 
H        -0.794053009     0.000000000     0.000000000    -1.208141863    -0.206718069     0.114738122
1
# Step: 22 Box:       inf    0.0000    0.0000 
H        -0.823916769     0.000000000     0.000000000    -1.181962746    -0.206718069     0.114738122
1
# Step: 23 Box:       inf    0.0000    0.0000 
H        -0.853406667     0.000000000     0.000000000    -1.205319848    -0.206718069     0.114738122
1
# Step: 24 Box:       inf    0.0000    0.0000 
H        -0.883919185     0.000000000     0.000000000    -1.223143613    -0.206718069     0.114738122
1
# Step: 25 Box:       inf    0.0000    0.0000 
H        -0.914813101     0.000000000     0.000000000    -1.252042270    -0.206718069     0.114738122
1
# Step: 26 Box:       inf    0.0000    0.0000 
H        -0.946226029     0.000000000     0.000000000    -1.268516687    -0.206718069     0.114738122
1
# Step: 27 Box:       inf    0.0000    0.0000 
H        -0.977306257     0.000000000     0.000000000    -1.209503884    -0.206718069     0.114738122
1
# Step: 28 Box:       inf    0.0000    0.0000 
H        -1.007019936     0.000000000     0.000000000    -1.158153836    -0.206718069     0.114738122
