1
# Step: 0 Box:       inf    0.0000    0.0000 
H        -0.250364412     0.000000000     0.000000000    -0.583026627    -0.206718069     0.114738122
1
# Step: 1 Box:       inf    0.0000    0.0000 
H        -0.264393062     0.000000000     0.000000000    -0.567089536    -0.206718069     0.114738122
1
# Step: 2 Box:       inf    0.0000    0.0000 
H        -0.278566860     0.000000000     0.000000000    -0.573898976    -0.206718069     0.114738122
1
# Step: 3 Box:       inf    0.0000    0.0000 
H        -0.293806015     0.000000000     0.000000000    -0.641478609    -0.206718069     0.114738122
1
# Step: 4 Box:       inf    0.0000    0.0000 
H        -0.309178596     0.000000000     0.000000000    -0.582094891    -0.206718069     0.114738122
