1
# Step: 0 Box:       inf    0.0000    0.0000 
H        -0.905635073     0.000000000     0.000000000     0.524995281    -0.232386362     0.099986076
1
# Step: 1 Box:       inf    0.0000    0.0000 
H        -0.892701609     0.000000000     0.000000000     0.502459101    -0.232386362     0.099986076
1
# Step: 2 Box:       inf    0.0000    0.0000 
H        -0.880594343     0.000000000     0.000000000     0.487209531    -0.232386362     0.099986076
1
# Step: 3 Box:       inf    0.0000    0.0000 
H        -0.868571404     0.000000000     0.000000000     0.500583959    -0.232386362     0.099986076
1
# Step: 4 Box:       inf    0.0000    0.0000 
H        -0.855403773     0.000000000     0.000000000     0.543016052    -0.232386362     0.099986076
1
# Step: 5 Box:       inf    0.0000    0.0000 
H        -0.842406267     0.000000000     0.000000000     0.503935751    -0.232386362     0.099986076
1
# Step: 6 Box:       inf    0.0000    0.0000 
H        -0.829423687     0.000000000     0.000000000     0.520615003    -0.232386362     0.099986076
1
# Step: 7 Box:       inf    0.0000    0.0000 
H        -0.817118141     0.000000000     0.000000000     0.484900010    -0.232386362     0.099986076
1
# Step: 8 Box:       inf    0.0000    0.0000 
H        -0.805615934     0.000000000     0.000000000     0.424547104    -0.232386362     0.099986076
1
# Step: 9 Box:       inf    0.0000    0.0000 
H        -0.794616227     0.000000000     0.000000000     0.432552686    -0.232386362     0.099986076
1
# Step: 10 Box:       inf    0.0000    0.0000 
H        -0.784082258     0.000000000     0.000000000     0.388073055    -0.232386362     0.099986076
1
# Step: 11 Box:       inf    0.0000    0.0000 
H        -0.775135173     0.000000000     0.000000000     0.319510873    -0.232386362     0.099986076
1
# Step: 12 Box:       inf    0.0000    0.0000 
H        -0.768379603     0.000000000     0.000000000     0.224765644    -0.232386362     0.099986076
1
# Step: 13 Box:       inf    0.0000    0.0000 
H        -0.764004233     0.000000000     0.000000000     0.119038520    -0.232386362     0.099986076
1
# Step: 14 Box:       inf    0.0000    0.0000 
H        -0.761197536     0.000000000     0.000000000     0.091378072    -0.232386362     0.099986076
1
# Step: 15 Box:       inf    0.0000    0.0000 
H        -0.759524173     0.000000000     0.000000000     0.064918550    -0.232386362     0.099986076
1
# Step: 16 Box:       inf    0.0000    0.0000 
H        -0.759239938     0.000000000     0.000000000    -0.033289382    -0.232386362     0.099986076
1
# Step: 17 Box:       inf    0.0000    0.0000 
H        -0.759598597     0.000000000     0.000000000    -0.030646255    -0.232386362     0.099986076
1
# Step: 18 Box:       inf    0.0000    0.0000 
H        -0.760905035     0.000000000     0.000000000    -0.077186712    -0.232386362     0.099986076
1
# Step: 19 Box:       inf    0.0000    0.0000 
H        -0.763013447     0.000000000     0.000000000    -0.102997494    -0.232386362     0.099986076
1
# Step: 20 Box:       inf    0.0000    0.0000 
H        -0.765723132     0.000000000     0.000000000    -0.148802582    -0.232386362     0.099986076
1
# Step: 21 Box:       inf    0.0000    0.0000 
H        -0.769897355     0.000000000     0.000000000    -0.184457155    -0.232386362     0.099986076
1
# Step: 22 Box:       inf    0.0000    0.0000 
H        -0.774818638     0.000000000     0.000000000    -0.199314504    -0.232386362     0.099986076
1
# Step: 23 Box:       inf    0.0000    0.0000 
H        -0.779894878     0.000000000     0.000000000    -0.200490886    -0.232386362     0.099986076
1
# Step: 24 Box:       inf    0.0000    0.0000 
H        -0.784742766     0.000000000     0.000000000    -0.186865819    -0.232386362     0.099986076
1
# Step: 25 Box:       inf    0.0000    0.0000 
H        -0.790112605     0.000000000     0.000000000    -0.271707682    -0.232386362     0.099986076
1
# Step: 26 Box:       inf    0.0000    0.0000 
H        -0.797764782     0.000000000     0.000000000    -0.332878465    -0.232386362     0.099986076
1
# Step: 27 Box:       inf    0.0000    0.0000 
H        -0.806072594     0.000000000     0.000000000    -0.361535066    -0.232386362     0.099986076
1
# Step: 28 Box:       inf    0.0000    0.0000 
H        -0.815408577     0.000000000     0.000000000    -0.398719975    -0.232386362     0.099986076
1
# Step: 29 Box:       inf    0.0000    0.0000 
H        -0.826256004     0.000000000     0.000000000    -0.462367432    -0.232386362     0.099986076
1
# Step: 30 Box:       inf    0.0000    0.0000 
H        -0.838690699     0.000000000     0.000000000    -0.528673483    -0.232386362     0.099986076
1
# Step: 31 Box:       inf    0.0000    0.0000 
H        -0.852126493     0.000000000     0.000000000    -0.545736157    -0.232386362     0.099986076
1
# Step: 32 Box:       inf    0.0000    0.0000 
H        -0.865635388     0.000000000     0.000000000    -0.527638301    -0.232386362     0.099986076
1
# Step: 33 Box:       inf    0.0000    0.0000 
H        -0.878119356     0.000000000     0.000000000    -0.486973043    -0.232386362     0.099986076
1
# Step: 34 Box:       inf    0.0000    0.0000 
H        -0.889810714     0.000000000     0.000000000    -0.445419866    -0.232386362     0.099986076
1
# Step: 35 Box:       inf    0.0000    0.0000 
H        -0.900946565     0.000000000     0.000000000    -0.434163014    -0.232386362     0.099986076
1
# Step: 36 Box:       inf    0.0000    0.0000 
H        -0.912212544     0.000000000     0.000000000    -0.460265071    -0.232386362     0.099986076
1
# Step: 37 Box:       inf    0.0000    0.0000 
H        -0.922930979     0.000000000     0.000000000    -0.437454051    -0.232386362     0.099986076
1
# Step: 38 Box:       inf    0.0000    0.0000 
H        -0.933871748     0.000000000     0.000000000    -0.451441690    -0.232386362     0.099986076
1
# Step: 39 Box:       inf    0.0000    0.0000 
H        -0.945333254     0.000000000     0.000000000    -0.462223674    -0.232386362     0.099986076
1
# Step: 40 Box:       inf    0.0000    0.0000 
H        -0.956974771     0.000000000     0.000000000    -0.463007030    -0.232386362     0.099986076
1
# Step: 41 Box:       inf    0.0000    0.0000 
H        -0.968423611     0.000000000     0.000000000    -0.461993529    -0.232386362     0.099986076
1
# Step: 42 Box:       inf    0.0000    0.0000 
H        -0.980087309     0.000000000     0.000000000    -0.486648523    -0.232386362     0.099986076
1
# Step: 43 Box:       inf    0.0000    0.0000 
H        -0.992409576     0.000000000     0.000000000    -0.507606086    -0.232386362     0.099986076
