1
# Step: 0 Box:       inf    0.0000    0.0000 
H        -0.905635073     0.000000000     0.000000000    -0.524995281     0.232386362    -0.099986076
1
# Step: 1 Box:       inf    0.0000    0.0000 
H        -0.918967978     0.000000000     0.000000000    -0.557423356     0.232386362    -0.099986076
1
# Step: 2 Box:       inf    0.0000    0.0000 
H        -0.933140163     0.000000000     0.000000000    -0.554122384     0.232386362    -0.099986076
1
# Step: 3 Box:       inf    0.0000    0.0000 
H        -0.946938700     0.000000000     0.000000000    -0.547239973     0.232386362    -0.099986076
1
# Step: 4 Box:       inf    0.0000    0.0000 
H        -0.960541623     0.000000000     0.000000000    -0.541852060     0.232386362    -0.099986076
1
# Step: 5 Box:       inf    0.0000    0.0000 
H        -0.974512889     0.000000000     0.000000000    -0.568501915     0.232386362    -0.099986076
1
# Step: 6 Box:       inf    0.0000    0.0000 
H        -0.989567986     0.000000000     0.000000000    -0.603529458     0.232386362    -0.099986076
1
# Step: 7 Box:       inf    0.0000    0.0000 
H        -1.004594976     0.000000000     0.000000000    -0.604939780     0.232386362    -0.099986076
