1
# Step: 0 Box:       inf    0.0000    0.0000 
H        -0.715057375     0.000000000     0.000000000    -0.144896251     0.353636887    -0.137323088
1
# Step: 1 Box:       inf    0.0000    0.0000 
H        -0.718599446     0.000000000     0.000000000    -0.139376907     0.353636887    -0.137323088
1
# Step: 2 Box:       inf    0.0000    0.0000 
H        -0.723418497     0.000000000     0.000000000    -0.230277834     0.353636887    -0.137323088
1
# Step: 3 Box:       inf    0.0000    0.0000 
H        -0.730130847     0.000000000     0.000000000    -0.302340560     0.353636887    -0.137323088
1
# Step: 4 Box:       inf    0.0000    0.0000 
H        -0.738223116     0.000000000     0.000000000    -0.331901771     0.353636887    -0.137323088
1
# Step: 5 Box:       inf    0.0000    0.0000 
H        -0.746707604     0.000000000     0.000000000    -0.344612959     0.353636887    -0.137323088
1
# Step: 6 Box:       inf    0.0000    0.0000 
H        -0.755605167     0.000000000     0.000000000    -0.335409637     0.353636887    -0.137323088
1
# Step: 7 Box:       inf    0.0000    0.0000 
H        -0.764073855     0.000000000     0.000000000    -0.344914877     0.353636887    -0.137323088
1
# Step: 8 Box:       inf    0.0000    0.0000 
H        -0.773167761     0.000000000     0.000000000    -0.384366861     0.353636887    -0.137323088
1
# Step: 9 Box:       inf    0.0000    0.0000 
H        -0.782698330     0.000000000     0.000000000    -0.387050799     0.353636887    -0.137323088
1
# Step: 10 Box:       inf    0.0000    0.0000 
H        -0.792918539     0.000000000     0.000000000    -0.408548990     0.353636887    -0.137323088
1
# Step: 11 Box:       inf    0.0000    0.0000 
H        -0.804010626     0.000000000     0.000000000    -0.461447072     0.353636887    -0.137323088
