1
# Step: 0 Box:       inf    0.0000    0.0000 
H        -0.715057375     0.000000000     0.000000000     0.144896251    -0.353636887     0.137323088
1
# Step: 1 Box:       inf    0.0000    0.0000 
H        -0.711796924     0.000000000     0.000000000     0.115543210    -0.353636887     0.137323088
1
# Step: 2 Box:       inf    0.0000    0.0000 
H        -0.709155347     0.000000000     0.000000000     0.103155584    -0.353636887     0.137323088
1
# Step: 3 Box:       inf    0.0000    0.0000 
H        -0.707090353     0.000000000     0.000000000     0.071421092    -0.353636887     0.137323088
1
# Step: 4 Box:       inf    0.0000    0.0000 
H        -0.704796697     0.000000000     0.000000000     0.097631942    -0.353636887     0.137323088
1
# Step: 5 Box:       inf    0.0000    0.0000 
H        -0.702861228     0.000000000     0.000000000     0.046813782    -0.353636887     0.137323088
1
# Step: 6 Box:       inf    0.0000    0.0000 
H        -0.702580682     0.000000000     0.000000000    -0.011229393    -0.353636887     0.137323088
1
# Step: 7 Box:       inf    0.0000    0.0000 
H        -0.702784721     0.000000000     0.000000000    -0.006495270    -0.353636887     0.137323088
1
# Step: 8 Box:       inf    0.0000    0.0000 
H        -0.703785804     0.000000000     0.000000000    -0.059155996    -0.353636887     0.137323088
1
# Step: 9 Box:       inf    0.0000    0.0000 
H        -0.705904951     0.000000000     0.000000000    -0.131629081    -0.353636887     0.137323088
1
# Step: 10 Box:       inf    0.0000    0.0000 
H        -0.709140189     0.000000000     0.000000000    -0.143004025    -0.353636887     0.137323088
1
# Step: 11 Box:       inf    0.0000    0.0000 
H        -0.712925810     0.000000000     0.000000000    -0.163617867    -0.353636887     0.137323088
1
# Step: 12 Box:       inf    0.0000    0.0000 
H        -0.717264292     0.000000000     0.000000000    -0.186618575    -0.353636887     0.137323088
1
# Step: 13 Box:       inf    0.0000    0.0000 
H        -0.722971859     0.000000000     0.000000000    -0.241722942    -0.353636887     0.137323088
1
# Step: 14 Box:       inf    0.0000    0.0000 
H        -0.728722912     0.000000000     0.000000000    -0.231148564    -0.353636887     0.137323088
1
# Step: 15 Box:       inf    0.0000    0.0000 
H        -0.735125045     0.000000000     0.000000000    -0.269360686    -0.353636887     0.137323088
1
# Step: 16 Box:       inf    0.0000    0.0000 
H        -0.741883108     0.000000000     0.000000000    -0.276523421    -0.353636887     0.137323088
1
# Step: 17 Box:       inf    0.0000    0.0000 
H        -0.749409706     0.000000000     0.000000000    -0.305767543    -0.353636887     0.137323088
1
# Step: 18 Box:       inf    0.0000    0.0000 
H        -0.757100507     0.000000000     0.000000000    -0.315592305    -0.353636887     0.137323088
1
# Step: 19 Box:       inf    0.0000    0.0000 
H        -0.766141125     0.000000000     0.000000000    -0.380008958    -0.353636887     0.137323088
1
# Step: 20 Box:       inf    0.0000    0.0000 
H        -0.775110577     0.000000000     0.000000000    -0.339133016    -0.353636887     0.137323088
1
# Step: 21 Box:       inf    0.0000    0.0000 
H        -0.784191253     0.000000000     0.000000000    -0.413107088    -0.353636887     0.137323088
1
# Step: 22 Box:       inf    0.0000    0.0000 
H        -0.794710314     0.000000000     0.000000000    -0.448667073    -0.353636887     0.137323088
1
# Step: 23 Box:       inf    0.0000    0.0000 
H        -0.806089866     0.000000000     0.000000000    -0.453941421    -0.353636887     0.137323088
